UiO66_Pristine LAMMPS input file. Created on 25-04-2025 using Sahuaro.

3648 atoms
4736 bonds
7296 angles
7680 dihedrals
1664 impropers

9 atom types
9 bond types
12 angle types
10 dihedral types
4 improper types

0.0 41.4008 xlo xhi
0.0 41.4008 ylo yhi
0.0 41.4008 zlo zhi

0.000000 0.000000 0.000000 xy xz yz

Masses

1  91.224   # Zr
2  15.9994   # O_ox
3  15.9994   # O_oh
4  15.9994   # O_ca
5  12.0107   # C_ca
6  12.0107   # C1
7  12.0107   # C2
8  1.00784   # H_oh
9  1.00784   # H2

Atoms

1     0   7   -0.106     5.53735990      0.00000000      3.81715003     
2     0   7   -0.106     5.53735990      10.35020000     14.16735003    
3     0   7   -0.106     15.88755990     0.00000000      14.16735003    
4     0   7   -0.106     15.88755990     10.35020000     3.81715003     
5     0   7   -0.106     15.16304010     0.00000000      3.81715003     
6     0   7   -0.106     15.16304010     10.35020000     14.16735003    
7     0   7   -0.106     4.81284010      0.00000000      14.16735003    
8     0   7   -0.106     4.81284010      10.35020000     3.81715003     
9     0   7   -0.106     15.16304010     0.00000000      16.88324997    
10    0   7   -0.106     15.16304010     10.35020000     6.53304997     
11    0   7   -0.106     4.81284010      0.00000000      6.53304997     
12    0   7   -0.106     4.81284010      10.35020000     16.88324997    
13    0   7   -0.106     5.53735990      0.00000000      16.88324997    
14    0   7   -0.106     5.53735990      10.35020000     6.53304997     
15    0   7   -0.106     15.88755990     0.00000000      6.53304997     
16    0   7   -0.106     15.88755990     10.35020000     16.88324997    
17    0   7   -0.106     3.81715003      5.53735990      0.00000000     
18    0   7   -0.106     3.81715003      15.88755990     10.35020000    
19    0   7   -0.106     14.16735003     5.53735990      10.35020000    
20    0   7   -0.106     14.16735003     15.88755990     0.00000000     
21    0   7   -0.106     3.81715003      15.16304010     0.00000000     
22    0   7   -0.106     3.81715003      4.81284010      10.35020000    
23    0   7   -0.106     14.16735003     15.16304010     10.35020000    
24    0   7   -0.106     14.16735003     4.81284010      0.00000000     
25    0   7   -0.106     16.88324997     15.16304010     0.00000000     
26    0   7   -0.106     16.88324997     4.81284010      10.35020000    
27    0   7   -0.106     6.53304997      15.16304010     10.35020000    
28    0   7   -0.106     6.53304997      4.81284010      0.00000000     
29    0   7   -0.106     16.88324997     5.53735990      0.00000000     
30    0   7   -0.106     16.88324997     15.88755990     10.35020000    
31    0   7   -0.106     6.53304997      5.53735990      10.35020000    
32    0   7   -0.106     6.53304997      15.88755990     0.00000000     
33    0   7   -0.106     0.00000000      3.81715003      5.53735990     
34    0   7   -0.106     0.00000000      14.16735003     15.88755990    
35    0   7   -0.106     10.35020000     3.81715003      15.88755990    
36    0   7   -0.106     10.35020000     14.16735003     5.53735990     
37    0   7   -0.106     0.00000000      3.81715003      15.16304010    
38    0   7   -0.106     0.00000000      14.16735003     4.81284010     
39    0   7   -0.106     10.35020000     3.81715003      4.81284010     
40    0   7   -0.106     10.35020000     14.16735003     15.16304010    
41    0   7   -0.106     0.00000000      16.88324997     15.16304010    
42    0   7   -0.106     0.00000000      6.53304997      4.81284010     
43    0   7   -0.106     10.35020000     16.88324997     4.81284010     
44    0   7   -0.106     10.35020000     6.53304997      15.16304010    
45    0   7   -0.106     0.00000000      16.88324997     5.53735990     
46    0   7   -0.106     0.00000000      6.53304997      15.88755990    
47    0   7   -0.106     10.35020000     16.88324997     15.88755990    
48    0   7   -0.106     10.35020000     6.53304997      5.53735990     
49    0   7   -0.106     0.00000000      5.53735990      16.88324997    
50    0   7   -0.106     0.00000000      15.88755990     6.53304997     
51    0   7   -0.106     10.35020000     5.53735990      6.53304997     
52    0   7   -0.106     10.35020000     15.88755990     16.88324997    
53    0   7   -0.106     0.00000000      15.16304010     16.88324997    
54    0   7   -0.106     0.00000000      4.81284010      6.53304997     
55    0   7   -0.106     10.35020000     15.16304010     6.53304997     
56    0   7   -0.106     10.35020000     4.81284010      16.88324997    
57    0   7   -0.106     0.00000000      15.16304010     3.81715003     
58    0   7   -0.106     0.00000000      4.81284010      14.16735003    
59    0   7   -0.106     10.35020000     15.16304010     14.16735003    
60    0   7   -0.106     10.35020000     4.81284010      3.81715003     
61    0   7   -0.106     0.00000000      5.53735990      3.81715003     
62    0   7   -0.106     0.00000000      15.88755990     14.16735003    
63    0   7   -0.106     10.35020000     5.53735990      14.16735003    
64    0   7   -0.106     10.35020000     15.88755990     3.81715003     
65    0   7   -0.106     5.53735990      3.81715003      0.00000000     
66    0   7   -0.106     5.53735990      14.16735003     10.35020000    
67    0   7   -0.106     15.88755990     3.81715003      10.35020000    
68    0   7   -0.106     15.88755990     14.16735003     0.00000000     
69    0   7   -0.106     15.16304010     3.81715003      0.00000000     
70    0   7   -0.106     15.16304010     14.16735003     10.35020000    
71    0   7   -0.106     4.81284010      3.81715003      10.35020000    
72    0   7   -0.106     4.81284010      14.16735003     0.00000000     
73    0   7   -0.106     15.16304010     16.88324997     0.00000000     
74    0   7   -0.106     15.16304010     6.53304997      10.35020000    
75    0   7   -0.106     4.81284010      16.88324997     10.35020000    
76    0   7   -0.106     4.81284010      6.53304997      0.00000000     
77    0   7   -0.106     5.53735990      16.88324997     0.00000000     
78    0   7   -0.106     5.53735990      6.53304997      10.35020000    
79    0   7   -0.106     15.88755990     16.88324997     10.35020000    
80    0   7   -0.106     15.88755990     6.53304997      0.00000000     
81    0   7   -0.106     3.81715003      0.00000000      15.16304010    
82    0   7   -0.106     3.81715003      10.35020000     4.81284010     
83    0   7   -0.106     14.16735003     0.00000000      4.81284010     
84    0   7   -0.106     14.16735003     10.35020000     15.16304010    
85    0   7   -0.106     3.81715003      0.00000000      5.53735990     
86    0   7   -0.106     3.81715003      10.35020000     15.88755990    
87    0   7   -0.106     14.16735003     0.00000000      15.88755990    
88    0   7   -0.106     14.16735003     10.35020000     5.53735990     
89    0   7   -0.106     16.88324997     0.00000000      5.53735990     
90    0   7   -0.106     16.88324997     10.35020000     15.88755990    
91    0   7   -0.106     6.53304997      0.00000000      15.88755990    
92    0   7   -0.106     6.53304997      10.35020000     5.53735990     
93    0   7   -0.106     16.88324997     0.00000000      15.16304010    
94    0   7   -0.106     16.88324997     10.35020000     4.81284010     
95    0   7   -0.106     6.53304997      0.00000000      4.81284010     
96    0   7   -0.106     6.53304997      10.35020000     15.16304010    
97    0   5   0.764      3.17957999      0.00000000      17.52082001    
98    0   5   0.764      3.17957999      10.35020000     7.17062001     
99    0   5   0.764      13.52977999     0.00000000      7.17062001     
100   0   5   0.764      13.52977999     10.35020000     17.52082001    
101   0   5   0.764      17.52082001     0.00000000      17.52082001    
102   0   5   0.764      17.52082001     10.35020000     7.17062001     
103   0   5   0.764      7.17062001      0.00000000      7.17062001     
104   0   5   0.764      7.17062001      10.35020000     17.52082001    
105   0   5   0.764      17.52082001     0.00000000      3.17957999     
106   0   5   0.764      17.52082001     10.35020000     13.52977999    
107   0   5   0.764      7.17062001      0.00000000      13.52977999    
108   0   5   0.764      7.17062001      10.35020000     3.17957999     
109   0   5   0.764      3.17957999      0.00000000      3.17957999     
110   0   5   0.764      3.17957999      10.35020000     13.52977999    
111   0   5   0.764      13.52977999     0.00000000      13.52977999    
112   0   5   0.764      13.52977999     10.35020000     3.17957999     
113   0   5   0.764      17.52082001     3.17957999      0.00000000     
114   0   5   0.764      17.52082001     13.52977999     10.35020000    
115   0   5   0.764      7.17062001      3.17957999      10.35020000    
116   0   5   0.764      7.17062001      13.52977999     0.00000000     
117   0   5   0.764      17.52082001     17.52082001     0.00000000     
118   0   5   0.764      17.52082001     7.17062001      10.35020000    
119   0   5   0.764      7.17062001      17.52082001     10.35020000    
120   0   5   0.764      7.17062001      7.17062001      0.00000000     
121   0   5   0.764      3.17957999      17.52082001     0.00000000     
122   0   5   0.764      3.17957999      7.17062001      10.35020000    
123   0   5   0.764      13.52977999     17.52082001     10.35020000    
124   0   5   0.764      13.52977999     7.17062001      0.00000000     
125   0   5   0.764      3.17957999      3.17957999      0.00000000     
126   0   5   0.764      3.17957999      13.52977999     10.35020000    
127   0   5   0.764      13.52977999     3.17957999      10.35020000    
128   0   5   0.764      13.52977999     13.52977999     0.00000000     
129   0   5   0.764      0.00000000      17.52082001     3.17957999     
130   0   5   0.764      0.00000000      7.17062001      13.52977999    
131   0   5   0.764      10.35020000     17.52082001     13.52977999    
132   0   5   0.764      10.35020000     7.17062001      3.17957999     
133   0   5   0.764      0.00000000      17.52082001     17.52082001    
134   0   5   0.764      0.00000000      7.17062001      7.17062001     
135   0   5   0.764      10.35020000     17.52082001     7.17062001     
136   0   5   0.764      10.35020000     7.17062001      17.52082001    
137   0   5   0.764      0.00000000      3.17957999      17.52082001    
138   0   5   0.764      0.00000000      13.52977999     7.17062001     
139   0   5   0.764      10.35020000     3.17957999      7.17062001     
140   0   5   0.764      10.35020000     13.52977999     17.52082001    
141   0   5   0.764      0.00000000      3.17957999      3.17957999     
142   0   5   0.764      0.00000000      13.52977999     13.52977999    
143   0   5   0.764      10.35020000     3.17957999      13.52977999    
144   0   5   0.764      10.35020000     13.52977999     3.17957999     
145   0   6   -0.135     4.24357993      0.00000000      4.24357993     
146   0   6   -0.135     4.24357993      10.35020000     14.59377993    
147   0   6   -0.135     14.59377993     0.00000000      14.59377993    
148   0   6   -0.135     14.59377993     10.35020000     4.24357993     
149   0   6   -0.135     16.45682007     0.00000000      4.24357993     
150   0   6   -0.135     16.45682007     10.35020000     14.59377993    
151   0   6   -0.135     6.10662007      0.00000000      14.59377993    
152   0   6   -0.135     6.10662007      10.35020000     4.24357993     
153   0   6   -0.135     16.45682007     0.00000000      16.45682007    
154   0   6   -0.135     16.45682007     10.35020000     6.10662007     
155   0   6   -0.135     6.10662007      0.00000000      6.10662007     
156   0   6   -0.135     6.10662007      10.35020000     16.45682007    
157   0   6   -0.135     4.24357993      0.00000000      16.45682007    
158   0   6   -0.135     4.24357993      10.35020000     6.10662007     
159   0   6   -0.135     14.59377993     0.00000000      6.10662007     
160   0   6   -0.135     14.59377993     10.35020000     16.45682007    
161   0   6   -0.135     4.24357993      4.24357993      0.00000000     
162   0   6   -0.135     4.24357993      14.59377993     10.35020000    
163   0   6   -0.135     14.59377993     4.24357993      10.35020000    
164   0   6   -0.135     14.59377993     14.59377993     0.00000000     
165   0   6   -0.135     4.24357993      16.45682007     0.00000000     
166   0   6   -0.135     4.24357993      6.10662007      10.35020000    
167   0   6   -0.135     14.59377993     16.45682007     10.35020000    
168   0   6   -0.135     14.59377993     6.10662007      0.00000000     
169   0   6   -0.135     16.45682007     16.45682007     0.00000000     
170   0   6   -0.135     16.45682007     6.10662007      10.35020000    
171   0   6   -0.135     6.10662007      16.45682007     10.35020000    
172   0   6   -0.135     6.10662007      6.10662007      0.00000000     
173   0   6   -0.135     16.45682007     4.24357993      0.00000000     
174   0   6   -0.135     16.45682007     14.59377993     10.35020000    
175   0   6   -0.135     6.10662007      4.24357993      10.35020000    
176   0   6   -0.135     6.10662007      14.59377993     0.00000000     
177   0   6   -0.135     0.00000000      4.24357993      4.24357993     
178   0   6   -0.135     0.00000000      14.59377993     14.59377993    
179   0   6   -0.135     10.35020000     4.24357993      14.59377993    
180   0   6   -0.135     10.35020000     14.59377993     4.24357993     
181   0   6   -0.135     0.00000000      4.24357993      16.45682007    
182   0   6   -0.135     0.00000000      14.59377993     6.10662007     
183   0   6   -0.135     10.35020000     4.24357993      6.10662007     
184   0   6   -0.135     10.35020000     14.59377993     16.45682007    
185   0   6   -0.135     0.00000000      16.45682007     16.45682007    
186   0   6   -0.135     0.00000000      6.10662007      6.10662007     
187   0   6   -0.135     10.35020000     16.45682007     6.10662007     
188   0   6   -0.135     10.35020000     6.10662007      16.45682007    
189   0   6   -0.135     0.00000000      16.45682007     4.24357993     
190   0   6   -0.135     0.00000000      6.10662007      14.59377993    
191   0   6   -0.135     10.35020000     16.45682007     14.59377993    
192   0   6   -0.135     10.35020000     6.10662007      4.24357993     
193   0   9   0.152      5.76547996      20.69900997     2.75501996     
194   0   9   0.152      5.76547996      10.34879010     13.10521996    
195   0   9   0.152      16.11564995     20.69897002     13.10521996    
196   0   9   0.152      16.11573999     10.34893997     2.75501996     
197   0   9   0.152      14.93488009     0.00132006      2.75501996     
198   0   9   0.152      14.93495005     10.35165006     13.10521996    
199   0   9   0.152      4.58469996      0.00136995      13.10521996    
200   0   9   0.152      4.58475005      10.35165006     2.75501996     
201   0   9   0.152      14.93489996     20.69890999     17.94538004    
202   0   9   0.152      14.93489996     10.34883005     7.59518004     
203   0   9   0.152      4.58472004      20.69897002     7.59518004     
204   0   9   0.152      4.58476993      10.34890001     17.94539991    
205   0   9   0.152      5.76547996      0.00139003      17.94538004    
206   0   9   0.152      5.76543007      10.35155008     7.59519991     
207   0   9   0.152      16.11571991     0.00139003      7.59518004     
208   0   9   0.152      16.11563007     10.35171009     17.94539991    
209   0   9   0.152      2.75501996      5.76550004      20.69890999    
210   0   9   0.152      2.75501996      16.11570004     10.34893997    
211   0   9   0.152      13.10521996     5.76547996      10.34874994    
212   0   9   0.152      13.10520009     16.11554996     20.69916005    
213   0   9   0.152      2.75501996      14.93488009     0.00129999     
214   0   9   0.152      2.75501996      4.58472004      10.35165006    
215   0   9   0.152      13.10521996     14.93488009     10.35155008    
216   0   9   0.152      13.10521996     4.58472004      0.00155005     
217   0   9   0.152      17.94538004     14.93492004     20.69884995    
218   0   9   0.152      17.94538004     4.58475005      10.34893997    
219   0   9   0.152      7.59515996      14.93486001     10.34868991    
220   0   9   0.152      7.59518004      4.58472004      20.69922008    
221   0   9   0.152      17.94538004     5.76544995      0.00123995     
222   0   9   0.152      17.94538004     16.11567996     10.35179000    
223   0   9   0.152      7.59518004      5.76547996      10.35143995    
224   0   9   0.152      7.59518004      16.11567996     0.00156992     
225   0   9   0.152      20.69904992     2.75501996      5.76551991     
226   0   9   0.152      20.69888991     13.10521996     16.11567996    
227   0   9   0.152      10.34884992     2.75504004      16.11577995    
228   0   9   0.152      10.34870999     13.10521996     5.76547996     
229   0   9   0.152      0.00140990      2.75501996      14.93488009    
230   0   9   0.152      0.00136995      13.10521996     4.58468009     
231   0   9   0.152      10.35149999     2.75501996      4.58468009     
232   0   9   0.152      10.35169001     13.10521996     14.93489996    
233   0   9   0.152      20.69900997     17.94538004     14.93492004    
234   0   9   0.152      20.69900997     7.59515996      4.58463993     
235   0   9   0.152      10.34877002     17.94538004     4.58472004     
236   0   9   0.152      10.34890001     7.59518004      14.93486001    
237   0   9   0.152      0.00142998      17.94538004     5.76550004     
238   0   9   0.152      0.00129999      7.59518004      16.11573999    
239   0   9   0.152      10.35171009     17.94535996     16.11573999    
240   0   9   0.152      10.35146003     7.59519991      5.76544995     
241   0   9   0.152      0.00135008      5.76551991      17.94538004    
242   0   9   0.152      0.00142998      16.11570004     7.59518004     
243   0   9   0.152      10.35156995     5.76547996      7.59518004     
244   0   9   0.152      10.35179000     16.11567996     17.94538004    
245   0   9   0.152      20.69888991     14.93489996     17.94538004    
246   0   9   0.152      20.69900997     4.58463993      7.59515996     
247   0   9   0.152      10.34877002     14.93495005     7.59518004     
248   0   9   0.152      10.34890001     4.58468009      17.94538004    
249   0   9   0.152      0.00129999      14.93488009     2.75501996     
250   0   9   0.152      0.00139003      4.58468009      13.10521996    
251   0   9   0.152      10.35166994     14.93488009     13.10521996    
252   0   9   0.152      10.35156995     4.58476993      2.75500009     
253   0   9   0.152      20.69899010     5.76556007      2.75504004     
254   0   9   0.152      20.69899010     16.11563007     13.10521996    
255   0   9   0.152      10.34887994     5.76553999      13.10521996    
256   0   9   0.152      10.34896005     16.11554996     2.75497007     
257   0   9   0.152      5.76547996      2.75501996      20.69910001    
258   0   9   0.152      5.76550004      13.10521996     10.34868991    
259   0   9   0.152      16.11567996     2.75501996      10.34893997    
260   0   9   0.152      16.11570004     13.10521996     20.69874003    
261   0   9   0.152      14.93492004     2.75501996      0.00142998     
262   0   9   0.152      14.93489996     13.10521996     10.35162998    
263   0   9   0.152      4.58469996      2.75501996      10.35159003    
264   0   9   0.152      4.58472004      13.10521996     0.00129999     
265   0   9   0.152      14.93492004     17.94538004     20.69900997    
266   0   9   0.152      14.93492004     7.59518004      10.34880997    
267   0   9   0.152      4.58468009      17.94538004     10.34880997    
268   0   9   0.152      4.58475005      7.59518004      20.69890999    
269   0   9   0.152      5.76551991      17.94538004     0.00146994     
270   0   9   0.152      5.76543007      7.59519991      10.35146003    
271   0   9   0.152      16.11571991     17.94538004     10.35176992    
272   0   9   0.152      16.11560999     7.59519991      0.00112010     
273   0   9   0.152      2.75501996      0.00129999      14.93492004    
274   0   9   0.152      2.75501996      10.35169001     4.58468009     
275   0   9   0.152      13.10524004     0.00126003      4.58466001     
276   0   9   0.152      13.10521996     10.35172997     14.93495005    
277   0   9   0.152      2.75501996      20.69893006     5.76544995     
278   0   9   0.152      2.75501996      10.34896005     16.11571991    
279   0   9   0.152      13.10521996     20.69884995     16.11570004    
280   0   9   0.152      13.10521996     10.34890001     5.76551991     
281   0   9   0.152      17.94538004     0.00132006      5.76547996     
282   0   9   0.152      17.94538004     10.35175005     16.11570004    
283   0   9   0.152      7.59518004      0.00127991      16.11567996    
284   0   9   0.152      7.59518004      10.35160990     5.76550004     
285   0   9   0.152      17.94538004     20.69893006     14.93492004    
286   0   9   0.152      17.94538004     10.34893997     4.58469996     
287   0   9   0.152      7.59518004      20.69890999     4.58469996     
288   0   9   0.152      7.59518004      10.34893997     14.93495005    
289   0   8   0.497      8.62154996      12.07914005     18.97142000    
290   0   8   0.497      12.07839008     8.62153009      18.97090000    
291   0   8   0.497      8.62245995      8.62095006      1.72937000     
292   0   8   0.497      12.08053008     12.07576009     1.72981009     
293   0   8   0.497      18.97116994     12.07805990     8.62090991     
294   0   8   0.497      18.97138005     8.62157004      12.07918000    
295   0   8   0.497      1.72803006      12.07920008     12.07966004    
296   0   8   0.497      1.72784003      8.62106992      8.62079005     
297   0   8   0.497      12.07852007     18.97129994     8.62109994     
298   0   8   0.497      8.62129990      18.97155993     12.07898997    
299   0   8   0.497      8.62086995      1.72729996      8.62053999     
300   0   8   0.497      12.07938990     1.72761005      12.07973995    
301   0   8   0.497      1.72953995      1.72927002      1.72757010     
302   0   8   0.497      18.97100992     18.97132001     1.72817000     
303   0   8   0.497      18.97106995     1.72888002      18.97207993    
304   0   8   0.497      1.72885994      18.97149990     18.97149990    
305   0   4   -0.6825    3.52880009      0.00000000      1.97274998     
306   0   4   -0.6825    3.52880009      10.35020000     12.32294998    
307   0   4   -0.6825    13.87900009     0.00000000      12.32294998    
308   0   4   -0.6825    13.87900009     10.35020000     1.97274998     
309   0   4   -0.6825    17.17159991     0.00000000      1.97274998     
310   0   4   -0.6825    17.17159991     10.35020000     12.32294998    
311   0   4   -0.6825    6.82139991      0.00000000      12.32294998    
312   0   4   -0.6825    6.82139991      10.35020000     1.97274998     
313   0   4   -0.6825    17.17159991     0.00000000      18.72765002    
314   0   4   -0.6825    17.17159991     10.35020000     8.37745002     
315   0   4   -0.6825    6.82139991      0.00000000      8.37745002     
316   0   4   -0.6825    6.82139991      10.35020000     18.72765002    
317   0   4   -0.6825    3.52880009      0.00000000      18.72765002    
318   0   4   -0.6825    3.52880009      10.35020000     8.37745002     
319   0   4   -0.6825    13.87900009     0.00000000      8.37745002     
320   0   4   -0.6825    13.87900009     10.35020000     18.72765002    
321   0   4   -0.6825    1.97274998      3.52880009      0.00000000     
322   0   4   -0.6825    1.97274998      13.87900009     10.35020000    
323   0   4   -0.6825    12.32294998     3.52880009      10.35020000    
324   0   4   -0.6825    12.32294998     13.87900009     0.00000000     
325   0   4   -0.6825    1.97274998      17.17159991     0.00000000     
326   0   4   -0.6825    1.97274998      6.82139991      10.35020000    
327   0   4   -0.6825    12.32294998     17.17159991     10.35020000    
328   0   4   -0.6825    12.32294998     6.82139991      0.00000000     
329   0   4   -0.6825    18.72765002     17.17159991     0.00000000     
330   0   4   -0.6825    18.72765002     6.82139991      10.35020000    
331   0   4   -0.6825    8.37745002      17.17159991     10.35020000    
332   0   4   -0.6825    8.37745002      6.82139991      0.00000000     
333   0   4   -0.6825    18.72765002     3.52880009      0.00000000     
334   0   4   -0.6825    18.72765002     13.87900009     10.35020000    
335   0   4   -0.6825    8.37745002      3.52880009      10.35020000    
336   0   4   -0.6825    8.37745002      13.87900009     0.00000000     
337   0   4   -0.6825    0.00000000      1.97274998      3.52880009     
338   0   4   -0.6825    0.00000000      12.32294998     13.87900009    
339   0   4   -0.6825    10.35020000     1.97274998      13.87900009    
340   0   4   -0.6825    10.35020000     12.32294998     3.52880009     
341   0   4   -0.6825    0.00000000      1.97274998      17.17159991    
342   0   4   -0.6825    0.00000000      12.32294998     6.82139991     
343   0   4   -0.6825    10.35020000     1.97274998      6.82139991     
344   0   4   -0.6825    10.35020000     12.32294998     17.17159991    
345   0   4   -0.6825    0.00000000      18.72765002     17.17159991    
346   0   4   -0.6825    0.00000000      8.37745002      6.82139991     
347   0   4   -0.6825    10.35020000     18.72765002     6.82139991     
348   0   4   -0.6825    10.35020000     8.37745002      17.17159991    
349   0   4   -0.6825    0.00000000      18.72765002     3.52880009     
350   0   4   -0.6825    0.00000000      8.37745002      13.87900009    
351   0   4   -0.6825    10.35020000     18.72765002     13.87900009    
352   0   4   -0.6825    10.35020000     8.37745002      3.52880009     
353   0   4   -0.6825    0.00000000      3.52880009      18.72765002    
354   0   4   -0.6825    0.00000000      13.87900009     8.37745002     
355   0   4   -0.6825    10.35020000     3.52880009      8.37745002     
356   0   4   -0.6825    10.35020000     13.87900009     18.72765002    
357   0   4   -0.6825    0.00000000      17.17159991     18.72765002    
358   0   4   -0.6825    0.00000000      6.82139991      8.37745002     
359   0   4   -0.6825    10.35020000     17.17159991     8.37745002     
360   0   4   -0.6825    10.35020000     6.82139991      18.72765002    
361   0   4   -0.6825    0.00000000      17.17159991     1.97274998     
362   0   4   -0.6825    0.00000000      6.82139991      12.32294998    
363   0   4   -0.6825    10.35020000     17.17159991     12.32294998    
364   0   4   -0.6825    10.35020000     6.82139991      1.97274998     
365   0   4   -0.6825    0.00000000      3.52880009      1.97274998     
366   0   4   -0.6825    0.00000000      13.87900009     12.32294998    
367   0   4   -0.6825    10.35020000     3.52880009      12.32294998    
368   0   4   -0.6825    10.35020000     13.87900009     1.97274998     
369   0   4   -0.6825    3.52880009      1.97274998      0.00000000     
370   0   4   -0.6825    3.52880009      12.32294998     10.35020000    
371   0   4   -0.6825    13.87900009     1.97274998      10.35020000    
372   0   4   -0.6825    13.87900009     12.32294998     0.00000000     
373   0   4   -0.6825    17.17159991     1.97274998      0.00000000     
374   0   4   -0.6825    17.17159991     12.32294998     10.35020000    
375   0   4   -0.6825    6.82139991      1.97274998      10.35020000    
376   0   4   -0.6825    6.82139991      12.32294998     0.00000000     
377   0   4   -0.6825    17.17159991     18.72765002     0.00000000     
378   0   4   -0.6825    17.17159991     8.37745002      10.35020000    
379   0   4   -0.6825    6.82139991      18.72765002     10.35020000    
380   0   4   -0.6825    6.82139991      8.37745002      0.00000000     
381   0   4   -0.6825    3.52880009      18.72765002     0.00000000     
382   0   4   -0.6825    3.52880009      8.37745002      10.35020000    
383   0   4   -0.6825    13.87900009     18.72765002     10.35020000    
384   0   4   -0.6825    13.87900009     8.37745002      0.00000000     
385   0   4   -0.6825    1.97274998      0.00000000      17.17159991    
386   0   4   -0.6825    1.97274998      10.35020000     6.82139991     
387   0   4   -0.6825    12.32294998     0.00000000      6.82139991     
388   0   4   -0.6825    12.32294998     10.35020000     17.17159991    
389   0   4   -0.6825    1.97274998      0.00000000      3.52880009     
390   0   4   -0.6825    1.97274998      10.35020000     13.87900009    
391   0   4   -0.6825    12.32294998     0.00000000      13.87900009    
392   0   4   -0.6825    12.32294998     10.35020000     3.52880009     
393   0   4   -0.6825    18.72765002     0.00000000      3.52880009     
394   0   4   -0.6825    18.72765002     10.35020000     13.87900009    
395   0   4   -0.6825    8.37745002      0.00000000      13.87900009    
396   0   4   -0.6825    8.37745002      10.35020000     3.52880009     
397   0   4   -0.6825    18.72765002     0.00000000      17.17159991    
398   0   4   -0.6825    18.72765002     10.35020000     6.82139991     
399   0   4   -0.6825    8.37745002      0.00000000      6.82139991     
400   0   4   -0.6825    8.37745002      10.35020000     17.17159991    
401   0   3   -1.037     1.16128996      19.53911004     19.53911004    
402   0   3   -1.037     1.16128996      9.18891004      9.18891004     
403   0   3   -1.037     11.51148996     19.53911004     9.18891004     
404   0   3   -1.037     11.51148996     9.18891004      19.53911004    