ITEM: TIMESTEP
0
ITEM: NUMBER OF ENTRIES
384
ITEM: BOX BOUNDS xy xz yz pp pp pp
-8.0526411398361308e-01 2.5845144651547500e+01 -2.0446147840937381e-01
-6.4474064522742669e-01 2.5825771359473599e+01 -5.8765798402773672e-01
-5.6840628591171338e-02 2.5888840628591403e+01 -6.5096928575386226e-01
ITEM: ENTRIES btype dist
3 0.93247 
3 0.953065 
7 1.28364 
7 1.24313 
6 1.50374 
5 1.38434 
5 1.38643 
4 1.41453 
5 1.43408 
3 0.967267 
3 0.917428 
7 1.26272 
7 1.27812 
7 1.25839 
7 1.24788 
5 1.38897 
7 1.2704 
7 1.25672 
6 1.49396 
6 1.50677 
6 1.50316 
6 1.48383 
5 1.36998 
3 0.972806 
3 0.939717 
5 1.38951 
4 1.36356 
7 1.25235 
7 1.23751 
7 1.25414 
7 1.27026 
3 0.973342 
3 1.01662 
3 0.943044 
3 0.976659 
5 1.40212 
5 1.35816 
4 1.37662 
5 1.41523 
5 1.33318 
6 1.47958 
3 0.993807 
5 1.4071 
5 1.40752 
5 1.42712 
4 1.37602 
5 1.3988 
4 1.36255 
3 0.947241 
3 0.964601 
3 0.932605 
6 1.52702 
7 1.2651 
7 1.23807 
3 0.958163 
3 0.957689 
3 0.985072 
3 0.962696 
5 1.37014 
4 1.38781 
5 1.39624 
3 0.96961 
5 1.3985 
4 1.36375 
3 0.964519 
5 1.35446 
4 1.4152 
7 1.25611 
7 1.22425 
7 1.2888 
7 1.25169 
7 1.24202 
7 1.23465 
7 1.26201 
7 1.24652 
6 1.49621 
6 1.46287 
6 1.52612 
5 1.36094 
3 0.973411 
3 0.960691 
5 1.37329 
6 1.45432 
5 1.41586 
4 1.38127 
5 1.41783 
3 0.919548 
3 0.922366 
7 1.29054 
7 1.24907 
6 1.48108 
5 1.3958 
5 1.41228 
4 1.39029 
3 0.949115 
3 0.947477 
7 1.30167 
7 1.26117 
6 1.49113 
5 1.40943 
5 1.41721 
5 1.37188 
4 1.41587 
3 0.957712 
3 0.984842 
3 0.961827 
7 1.25839 
7 1.24397 
7 1.2502 
7 1.27722 
7 1.23916 
7 1.2684 
6 1.48005 
6 1.48377 
6 1.5192 
6 1.49236 
5 1.41055 
5 1.38622 
3 0.97513 
5 1.39273 
7 1.23782 
7 1.26236 
5 1.3828 
4 1.37067 
3 0.935538 
7 1.24926 
7 1.23925 
3 0.911974 
3 0.961276 
3 0.961443 
5 1.39989 
4 1.35754 
5 1.41856 
5 1.39301 
4 1.38864 
3 0.938353 
3 0.940848 
5 1.40186 
5 1.42628 
4 1.36727 
5 1.40996 
5 1.38718 
4 1.38764 
3 0.923915 
3 0.967429 
6 1.44325 
6 1.4423 
5 1.41561 
4 1.3768 
7 1.24128 
7 1.24359 
3 0.942554 
3 0.96008 
3 0.946454 
3 0.955793 
5 1.43836 
5 1.37124 
4 1.35282 
3 0.945685 
5 1.40147 
3 0.962295 
5 1.36669 
4 1.40338 
7 1.26347 
7 1.24768 
3 0.925208 
6 1.4755 
5 1.44072 
7 1.23787 
7 1.26219 
6 1.51713 
6 1.51398 
6 1.48714 
3 0.96647 
7 1.26283 
7 1.25374 
5 1.39216 
5 1.39363 
7 1.24015 
7 1.24251 
3 0.94005 
3 0.955951 
7 1.23142 
7 1.21821 
6 1.51933 
5 1.41037 
4 1.37661 
5 1.43133 
4 1.36527 
3 0.950743 
3 0.933209 
7 1.23189 
7 1.3122 
6 1.50146 
5 1.40165 
5 1.43035 
3 0.986765 
5 1.38635 
4 1.40872 
3 0.967236 
7 1.23365 
7 1.24262 
7 1.21792 
7 1.26281 
7 1.26946 
7 1.25959 
5 1.40989 
5 1.39945 
4 1.38786 
6 1.49997 
6 1.4947 
5 1.42233 
4 1.37287 
6 1.47257 
3 0.961193 
6 1.54377 
3 0.923339 
5 1.39555 
4 1.3786 
7 1.26463 
7 1.24979 
5 1.38995 
4 1.37401 
7 1.29404 
7 1.28023 
3 0.949701 
3 0.989299 
3 0.964849 
5 1.42254 
4 1.36916 
5 1.3672 
4 1.39622 
3 0.985279 
6 1.49571 
3 0.951704 
5 1.37894 
5 1.38795 
5 1.46544 
4 1.389 
5 1.3872 
4 1.36572 
3 0.977757 
3 0.992488 
3 0.969438 
6 1.48479 
3 0.981704 
7 1.2212 
7 1.28029 
3 0.928344 
3 0.97615 
5 1.41045 
4 1.38747 
3 0.975419 
3 0.991844 
3 0.994681 
7 1.24696 
7 1.2247 
5 1.38247 
4 1.36742 
7 1.23637 
7 1.25623 
7 1.23645 
7 1.22565 
5 1.43196 
7 1.26229 
7 1.23525 
6 1.49741 
6 1.49884 
3 0.978558 
6 1.4969 
5 1.37939 
4 1.3788 
3 0.955315 
6 1.48899 
5 1.39304 
5 1.43866 
5 1.41175 
4 1.3619 
5 1.37851 
3 0.966968 
3 0.897796 
7 1.27404 
7 1.26773 
6 1.4628 
5 1.44388 
4 1.3977 
5 1.41793 
4 1.37563 
3 0.951127 
3 0.943335 
7 1.27222 
7 1.27234 
6 1.47862 
5 1.41422 
5 1.37627 
4 1.38989 
3 0.925815 
7 1.26591 
7 1.29636 
5 1.42275 
4 1.37943 
5 1.37971 
4 1.40108 
7 1.24615 
7 1.26677 
7 1.25635 
7 1.27568 
6 1.50011 
6 1.46673 
6 1.49428 
6 1.48717 
7 1.24551 
7 1.24324 
5 1.392 
3 0.955256 
3 0.963706 
5 1.41762 
4 1.35617 
3 0.986785 
5 1.39397 
5 1.3909 
7 1.25702 
7 1.25493 
3 0.943409 
3 0.935122 
3 0.963407 
3 0.950664 
5 1.38276 
5 1.39322 
3 0.92266 
6 1.53453 
5 1.40524 
5 1.43901 
5 1.38398 
4 1.40635 
5 1.41223 
4 1.38664 
3 0.982341 
3 0.950568 
3 0.95223 
6 1.43335 
7 1.24771 
7 1.28775 
3 1.00472 
3 0.950956 
3 0.965094 
5 1.40627 
5 1.39802 
3 0.973346 
3 0.906899 
5 1.40574 
4 1.4157 
3 0.979624 
3 0.953921 
5 1.42586 
4 1.37668 
7 1.26585 
7 1.26475 
7 1.26368 
7 1.24996 
7 1.25668 
7 1.24122 
6 1.4874 
6 1.44839 
6 1.48042 
6 1.49356 
5 1.40431 
3 0.956646 
7 1.28176 
7 1.26416 
5 1.37477 
4 1.40569 
5 1.41689 
4 1.33753 
5 1.37192 
4 1.37476 
3 0.91378 
3 0.927404 
7 1.24763 
7 1.23955 
6 1.49106 
5 1.41422 
5 1.41256 
4 1.40023 
ITEM: TIMESTEP
10000
ITEM: NUMBER OF ENTRIES
384
ITEM: BOX BOUNDS xy xz yz pp pp pp
6.2261810920361191e-03 2.5851220832406774e+01 -3.9410774212469614e-02
-1.2944842134216861e-01 2.5849475711210999e+01 6.4857787710421680e-02
-2.7420025387648650e-02 2.5859420025387891e+01 -1.1197271013126940e-01
ITEM: ENTRIES btype dist
3 0.989383 
3 0.935111 
7 1.2876 
7 1.22142 
6 1.53802 
5 1.40645 
5 1.36977 
4 1.41055 
5 1.38134 
3 1.00527 
7 1.26887 
7 1.2672 
3 0.952729 
7 1.24856 
7 1.23743 
7 1.25392 
7 1.24909 
5 1.38137 
7 1.22755 
7 1.24627 
6 1.48548 
6 1.48787 
6 1.46746 
6 1.5234 
5 1.39633 
3 0.97435 
3 0.913578 
5 1.4333 
4 1.38675 
5 1.39106 
5 1.39502 
5 1.3838 
7 1.31249 
7 1.25384 
3 0.984853 
3 0.942253 
3 0.966333 
3 0.985035 
5 1.4287 
4 1.38009 
6 1.47366 
3 0.934312 
5 1.40697 
5 1.37785 
5 1.41694 
4 1.38659 
5 1.42378 
4 1.38643 
3 0.964325 
3 0.982869 
3 1.00365 
6 1.438 
7 1.27506 
7 1.26335 
3 0.980743 
5 1.40451 
4 1.35843 
3 0.969953 
3 0.967435 
3 0.940339 
5 1.41333 
4 1.37859 
3 0.984827 
5 1.39856 
4 1.40521 
3 0.970673 
5 1.40594 
4 1.40535 
7 1.23636 
7 1.27378 
7 1.28818 
7 1.25123 
7 1.26305 
7 1.2439 
7 1.23785 
7 1.24537 
6 1.49839 
6 1.49647 
6 1.50626 
5 1.39849 
3 0.953431 
3 0.942613 
5 1.38492 
6 1.44781 
5 1.4256 
5 1.39236 
3 0.973469 
3 0.959253 
7 1.27029 
7 1.2147 
6 1.47593 
5 1.43264 
5 1.40866 
4 1.41934 
3 0.96392 
3 0.911124 
7 1.26775 
7 1.28145 
6 1.48503 
5 1.40738 
5 1.37632 
5 1.39644 
4 1.39077 
3 0.93541 
3 0.9764 
3 0.924794 
7 1.25091 
7 1.29261 
5 1.40414 
4 1.40937 
7 1.2512 
7 1.2159 
7 1.23124 
7 1.24326 
6 1.4803 
6 1.4758 
6 1.4888 
6 1.48726 
5 1.43 
5 1.41425 
3 0.932982 
5 1.40962 
7 1.27663 
7 1.26376 
5 1.39503 
4 1.39533 
5 1.39668 
4 1.39816 
3 0.977193 
3 1.00393 
3 1.00571 
3 0.942572 
7 1.23144 
7 1.25369 
5 1.43862 
3 0.969196 
3 0.964671 
5 1.40573 
5 1.41659 
4 1.39148 
5 1.40993 
5 1.38791 
4 1.39448 
3 0.988343 
3 0.94578 
6 1.48223 
6 1.48221 
3 0.927665 
7 1.28692 
7 1.26877 
3 0.919107 
3 0.957705 
3 0.923397 
5 1.42628 
5 1.36029 
4 1.39626 
5 1.35333 
4 1.37305 
3 0.991505 
5 1.43575 
3 0.94996 
5 1.42046 
4 1.44546 
7 1.22769 
7 1.24908 
3 0.958248 
6 1.49201 
5 1.3913 
7 1.26608 
7 1.28132 
6 1.49377 
6 1.49271 
6 1.45251 
3 0.963044 
7 1.2523 
7 1.2617 
5 1.39971 
5 1.38319 
7 1.24249 
7 1.28579 
3 0.975663 
3 0.914884 
7 1.28305 
7 1.28348 
6 1.54664 
5 1.38008 
4 1.40325 
5 1.41613 
4 1.40281 
3 0.97818 
3 1.01106 
7 1.23533 
7 1.25441 
6 1.41615 
5 1.43863 
5 1.41984 
3 0.970126 
5 1.39654 
4 1.3853 
3 0.945958 
7 1.21923 
7 1.23645 
7 1.27238 
7 1.26318 
7 1.24411 
7 1.2678 
5 1.4035 
6 1.45487 
6 1.4756 
5 1.39824 
4 1.35765 
6 1.51388 
3 0.925853 
6 1.47646 
3 0.984217 
5 1.40167 
4 1.34287 
7 1.24614 
7 1.28798 
5 1.37473 
4 1.3721 
5 1.3983 
4 1.38888 
3 0.971645 
7 1.25413 
7 1.27413 
5 1.41053 
4 1.3884 
3 0.930715 
3 0.965971 
5 1.37041 
4 1.38047 
3 0.990074 
6 1.49471 
3 0.98808 
5 1.37761 
5 1.41464 
5 1.3925 
4 1.39674 
5 1.42832 
4 1.38417 
3 0.915295 
3 0.972643 
3 0.954009 
6 1.51454 
3 0.968105 
7 1.25178 
7 1.24709 
5 1.38045 
3 0.92901 
3 0.930431 
5 1.38592 
3 0.946977 
3 0.96414 
7 1.27602 
7 1.26162 
5 1.38259 
4 1.37856 
7 1.30507 
7 1.23152 
7 1.26176 
7 1.21728 
5 1.42476 
7 1.24221 
7 1.22851 
6 1.50131 
6 1.49481 
3 0.936603 
6 1.50855 
5 1.43542 
4 1.39094 
3 0.948365 
6 1.47394 
5 1.36516 
5 1.414 
4 1.36567 
3 0.969101 
5 1.38288 
4 1.40897 
3 0.946179 
3 0.982969 
7 1.23778 
7 1.2351 
6 1.48351 
5 1.44629 
4 1.39001 
5 1.39957 
4 1.38137 
3 1.01316 
3 0.92258 
7 1.28635 
7 1.25415 
6 1.48548 
5 1.38081 
5 1.42266 
4 1.40756 
3 0.927032 
7 1.29585 
7 1.22747 
5 1.40094 
4 1.37717 
5 1.37923 
4 1.39535 
7 1.27616 
7 1.2317 
7 1.2613 
7 1.2274 
6 1.51073 
6 1.50365 
6 1.50984 
6 1.45508 
7 1.27215 
7 1.28228 
5 1.40569 
3 0.943079 
3 0.929378 
5 1.38884 
4 1.36685 
3 0.941813 
5 1.36954 
5 1.43982 
7 1.21362 
7 1.24824 
3 0.963832 
3 0.936536 
3 0.938454 
5 1.4465 
3 0.944732 
5 1.37548 
3 0.971215 
6 1.45821 
5 1.38678 
5 1.41023 
5 1.38529 
4 1.3572 
5 1.41494 
4 1.39798 
3 0.954759 
3 1.00584 
3 0.977859 
6 1.44085 
7 1.25888 
7 1.22802 
3 0.982625 
3 0.99358 
3 0.986709 
5 1.39743 
4 1.36338 
3 0.954197 
3 0.910548 
5 1.39688 
4 1.40393 
3 0.906423 
3 0.989413 
7 1.27443 
7 1.27301 
7 1.21444 
7 1.24947 
7 1.2744 
7 1.26281 
6 1.46481 
6 1.47898 
6 1.44003 
6 1.45401 
5 1.40386 
3 0.935271 
7 1.26693 
7 1.25769 
5 1.39503 
4 1.40147 
5 1.40155 
4 1.38762 
5 1.40772 
5 1.41778 
5 1.41086 
4 1.44788 
3 0.979426 
3 0.943373 
7 1.28259 
7 1.27191 
6 1.48678 
5 1.39981 
5 1.4299 
4 1.39898 
ITEM: TIMESTEP
20000
ITEM: NUMBER OF ENTRIES
384
ITEM: BOX BOUNDS xy xz yz pp pp pp
-1.0101331838468759e+00 2.5812339483666555e+01 -1.7057923371885059e-01
7.6221653763983710e-02 2.5892061111169731e+01 -8.5921446646213329e-01
5.7549810921061706e-02 2.5774450189079438e+01 1.3628276493350053e-01
ITEM: ENTRIES btype dist
3 0.969517 
3 0.977175 
7 1.24154 
7 1.27003 
6 1.49231 
5 1.40944 
5 1.42493 
4 1.38195 
5 1.43298 
3 0.950732 
7 1.27279 
7 1.25257 
3 0.977768 
7 1.23605 
7 1.23978 
7 1.24403 
7 1.2601 
5 1.38956 
7 1.19138 
7 1.2597 
6 1.52746 
6 1.49436 
6 1.49547 
6 1.46133 
5 1.36594 
3 0.979196 
3 0.952043 
5 1.38452 
4 1.38141 
5 1.43042 
4 1.34659 
5 1.37641 
7 1.27078 
7 1.27298 
3 0.945603 
5 1.38187 
3 0.966622 
3 0.919362 
3 0.953771 
5 1.41097 
6 1.51212 
3 0.978739 
5 1.39118 
5 1.41241 
5 1.41838 
4 1.42031 
5 1.40494 
4 1.37016 
3 0.961362 
3 0.956977 
3 0.926561 
6 1.50205 
7 1.28116 
7 1.24738 
3 0.943501 
3 0.944432 
3 0.938436 
3 0.969542 
3 0.976855 
5 1.39104 
4 1.40053 
3 0.969085 
5 1.36291 
4 1.40319 
7 1.24641 
7 1.23325 
7 1.25348 
7 1.24682 
7 1.25302 
7 1.25317 
7 1.25726 
7 1.26187 
6 1.49454 
6 1.50477 
6 1.43744 
5 1.42248 
3 0.97893 
3 0.955885 
5 1.36967 
6 1.48985 
5 1.43052 
5 1.41422 
5 1.39046 
4 1.40022 
5 1.40816 
4 1.39125 
3 0.99326 
3 0.96027 
7 1.2796 
7 1.23509 
6 1.44941 
5 1.44597 
5 1.40055 
4 1.37963 
3 0.932197 
3 0.966829 
7 1.25327 
7 1.27201 
6 1.49073 
5 1.42534 
5 1.40759 
5 1.42936 
4 1.36346 
3 0.995279 
3 0.954108 
3 0.941678 
7 1.284 
7 1.2484 
7 1.21349 
7 1.28285 
7 1.28168 
7 1.24587 
6 1.47962 
6 1.48285 
6 1.42292 
6 1.48556 
5 1.36607 
5 1.40887 
3 0.923088 
5 1.41289 
7 1.26363 
7 1.23469 
5 1.42174 
5 1.38384 
4 1.36517 
5 1.41398 
4 1.33949 
3 0.927351 
7 1.25762 
7 1.27987 
3 0.98379 
3 0.976886 
5 1.38871 
4 1.4142 
3 0.971258 
3 0.992702 
3 0.977158 
5 1.4236 
5 1.3971 
4 1.39598 
5 1.40644 
5 1.41538 
4 1.40283 
3 0.990336 
3 0.969872 
6 1.47366 
6 1.48196 
7 1.23027 
7 1.27619 
5 1.41236 
4 1.38783 
3 0.974615 
3 0.94305 
3 0.901204 
5 1.36479 
3 0.912027 
5 1.44275 
3 0.945344 
5 1.44062 
4 1.40241 
7 1.2451 
7 1.24711 
3 0.981778 
6 1.48688 
7 1.24559 
7 1.23994 
7 1.26328 
7 1.27396 
6 1.4725 
6 1.43903 
6 1.44204 
3 0.932982 
7 1.24344 
7 1.22842 
5 1.40478 
5 1.38118 
5 1.44433 
4 1.3532 
5 1.39696 
3 0.998864 
3 0.918779 
3 0.983107 
7 1.23059 
7 1.23284 
6 1.49814 
5 1.37996 
4 1.35411 
5 1.39757 
4 1.39562 
3 0.991612 
3 0.959898 
7 1.22503 
7 1.26526 
6 1.48564 
5 1.41212 
5 1.42802 
3 0.999879 
5 1.39841 
4 1.37382 
3 0.995561 
7 1.24031 
7 1.2493 
7 1.29132 
7 1.23598 
7 1.26728 
7 1.30815 
5 1.37268 
5 1.38678 
4 1.34431 
6 1.48925 
6 1.46195 
5 1.41757 
4 1.36155 
6 1.48442 
3 0.941425 
6 1.51942 
3 0.971774 
5 1.37682 
4 1.37289 
7 1.21426 
7 1.2765 
5 1.42914 
4 1.37233 
3 0.986497 
7 1.2422 
7 1.24877 
5 1.37727 
4 1.39127 
3 0.955408 
3 0.927867 
3 0.955075 
5 1.3996 
4 1.39689 
6 1.42326 
3 0.96266 
5 1.40996 
5 1.40469 
5 1.37081 
4 1.36724 
5 1.39234 
4 1.38709 
3 0.963773 
3 0.985945 
3 0.958757 
6 1.49022 
3 0.973083 
7 1.2671 
7 1.2494 
3 0.986155 
3 0.982966 
5 1.38967 
4 1.37866 
3 0.946392 
3 0.971524 
7 1.31707 
7 1.26311 
5 1.42173 
4 1.35528 
7 1.27905 
7 1.26441 
7 1.22329 
7 1.25652 
5 1.36876 
7 1.25522 
7 1.25988 
6 1.47891 
6 1.48911 
3 0.995207 
6 1.50643 
5 1.38538 
4 1.40484 
3 0.992025 
6 1.45801 
5 1.38614 
5 1.41746 
4 1.34521 
5 1.42037 
3 0.947896 
5 1.39567 
3 0.936824 
3 0.922976 
7 1.27445 
7 1.27846 
6 1.50684 
5 1.41753 
4 1.388 
5 1.38818 
4 1.37371 
3 1.01475 
3 0.948464 
7 1.23349 
7 1.23044 
6 1.48227 
5 1.40373 
5 1.38331 
4 1.38233 
3 0.96539 
7 1.27458 
7 1.27733 
5 1.39691 
4 1.40306 
5 1.40674 
4 1.36061 
7 1.24995 
7 1.25361 
7 1.28012 
7 1.23902 
6 1.53255 
6 1.48761 
6 1.44673 
6 1.47997 
5 1.40321 
5 1.38785 
3 0.932335 
3 1.00503 
5 1.42241 
4 1.35333 
3 0.935168 
7 1.26174 
7 1.26599 
5 1.42668 
3 1.00999 
7 1.25646 
7 1.27128 
3 0.96954 
3 0.919466 
3 0.937039 
5 1.41708 
5 1.38324 
3 0.940504 
6 1.51085 
5 1.35005 
5 1.40548 
5 1.37912 
4 1.3976 
5 1.42707 
4 1.37411 
3 0.993316 
3 0.953342 
3 0.924507 
6 1.53754 
3 0.949045 
7 1.25683 
7 1.26264 
3 0.944604 
3 0.937178 
5 1.43546 
5 1.38006 
3 0.951358 
5 1.37584 
4 1.41093 
3 0.982086 
3 0.967747 
3 0.982385 
7 1.26709 
7 1.24176 
7 1.25281 
7 1.26129 
7 1.20931 
7 1.26621 
6 1.46097 
6 1.50016 
6 1.52446 
6 1.44562 
5 1.36491 
3 0.992023 
7 1.22978 
7 1.2551 
5 1.36818 
4 1.4326 
5 1.38642 
4 1.39777 
5 1.38937 
4 1.38914 
5 1.43644 
4 1.40208 
3 0.942598 
3 0.959428 
7 1.29882 
7 1.23885 
6 1.44335 
5 1.40233 
5 1.41185 
4 1.37094 
ITEM: TIMESTEP
30000
ITEM: NUMBER OF ENTRIES
384
ITEM: BOX BOUNDS xy xz yz pp pp pp
-1.3926447640908890e-02 2.6867859969222078e+01 2.5624685661022006e-01
-3.5948834891088782e-01 2.5846799279768796e+01 7.6568666497010862e-01
6.9641169384015100e-02 2.5762358830616265e+01 -3.4468906914192782e-01
ITEM: ENTRIES btype dist
3 0.9763 
3 0.925516 
7 1.27171 
7 1.29785 
6 1.48725 
5 1.39344 
5 1.41853 
4 1.3885 
5 1.42745 
3 0.954166 
7 1.26777 
7 1.24583 
3 0.977961 
7 1.21056 
7 1.31186 
7 1.26138 
7 1.25887 
5 1.40832 
7 1.25736 
7 1.22239 
6 1.50546 
6 1.50049 
6 1.5119 
6 1.41358 
5 1.41501 
3 0.996175 
3 0.986425 
5 1.38173 
4 1.37513 
5 1.38715 
4 1.36212 
5 1.38608 
7 1.23187 
7 1.25572 
3 0.960369 
3 0.942098 
3 0.976374 
3 0.935122 
5 1.4063 
5 1.40654 
6 1.48958 
3 0.917007 
5 1.41894 
5 1.41341 
5 1.37483 
4 1.42823 
5 1.39865 
4 1.42665 
3 0.927055 
3 0.984111 
3 0.963596 
6 1.51992 
7 1.22831 
7 1.27638 
5 1.4126 
3 0.901735 
3 0.932557 
3 1.01249 
3 0.965003 
5 1.41062 
4 1.36649 
5 1.37701 
4 1.35808 
3 1.00061 
5 1.35923 
4 1.3568 
3 0.944607 
5 1.39691 
4 1.39761 
6 1.4768 
7 1.23872 
7 1.28578 
7 1.25567 
7 1.29133 
7 1.23817 
7 1.24194 
7 1.23394 
7 1.24724 
6 1.48442 
6 1.49762 
6 1.52844 
5 1.39859 
3 0.951547 
3 0.921035 
5 1.37209 
5 1.41911 
3 0.939371 
3 0.911103 
7 1.24788 
7 1.24835 
6 1.49517 
5 1.41069 
5 1.37093 
4 1.41808 
3 0.967102 
3 0.946979 
7 1.28716 
7 1.26091 
6 1.49574 
5 1.40325 
5 1.40807 
5 1.41008 
4 1.36148 
3 0.988945 
3 0.966036 
3 0.913643 
7 1.29273 
7 1.22899 
7 1.2126 
7 1.22964 
7 1.28724 
7 1.25689 
6 1.55574 
6 1.48658 
6 1.47184 
6 1.48506 
5 1.40173 
5 1.40578 
3 0.983373 
5 1.40338 
7 1.24182 
7 1.2383 
5 1.42389 
5 1.38934 
4 1.40663 
5 1.38647 
4 1.38321 
3 0.951473 
3 0.949261 
3 0.979588 
7 1.25682 
7 1.25101 
3 0.965772 
5 1.40217 
4 1.35641 
3 0.995211 
3 0.949581 
5 1.36133 
5 1.40739 
4 1.38952 
5 1.4262 
5 1.43238 
4 1.38156 
3 0.932376 
3 0.973227 
6 1.49587 
6 1.48064 
3 0.978744 
7 1.25985 
7 1.2118 
5 1.38215 
4 1.42551 
3 0.926501 
3 0.90132 
3 0.942716 
5 1.40722 
4 1.40504 
5 1.42517 
3 1.00025 
5 1.38391 
3 0.94058 
5 1.38707 
4 1.36015 
7 1.22948 
7 1.27283 
3 0.90694 
6 1.5215 
7 1.25246 
7 1.251 
7 1.26739 
7 1.25405 
6 1.47876 
6 1.50674 
6 1.5302 
3 0.927588 
7 1.26023 
7 1.29426 
5 1.39322 
5 1.43575 
5 1.41492 
3 0.954591 
3 0.974551 
7 1.25467 
7 1.29436 
6 1.48544 
5 1.37389 
4 1.38059 
5 1.42517 
4 1.36277 
3 0.918892 
3 0.962956 
7 1.25801 
7 1.31452 
6 1.51155 
5 1.37949 
5 1.36214 
3 0.932472 
5 1.45373 
4 1.37859 
3 0.983407 
7 1.27276 
7 1.28416 
7 1.30789 
7 1.25904 
7 1.25694 
7 1.27293 
5 1.43375 
5 1.39473 
4 1.37113 
6 1.46375 
6 1.48439 
5 1.4039 
4 1.41456 
6 1.48783 
3 0.930953 
6 1.48387 
3 0.948431 
5 1.38874 
4 1.39937 
7 1.25372 
7 1.25595 
7 1.20818 
7 1.22717 
3 0.94886 
3 0.968631 
3 0.989753 
5 1.37526 
4 1.38529 
5 1.42641 
4 1.35947 
5 1.4381 
4 1.41047 
3 0.923945 
6 1.4914 
3 0.991986 
5 1.39727 
5 1.42116 
5 1.38214 
4 1.3806 
5 1.38521 
4 1.39399 
3 0.931348 
3 0.970197 
3 0.952483 
6 1.49236 
7 1.24671 
7 1.231 
3 0.944759 
3 0.982368 
3 0.972388 
5 1.38948 
5 1.3481 
4 1.39151 
3 0.99708 
3 0.967465 
7 1.26838 
7 1.24215 
5 1.41608 
4 1.41642 
7 1.22477 
7 1.25435 
7 1.27991 
7 1.25432 
5 1.38774 
7 1.23828 
7 1.22527 
6 1.47723 
6 1.48395 
3 0.920132 
6 1.46551 
5 1.43387 
4 1.35856 
3 0.963771 
6 1.45804 
5 1.39359 
3 0.951321 
5 1.37445 
4 1.38012 
5 1.4064 
3 0.981905 
3 0.954277 
7 1.24406 
7 1.26088 
6 1.50969 
5 1.38235 
4 1.37516 
5 1.39193 
4 1.3644 
3 0.959317 
3 0.946984 
7 1.28703 
7 1.22554 
6 1.48391 
5 1.41024 
5 1.38286 
4 1.3916 
3 0.945527 
7 1.26764 
7 1.27006 
5 1.38932 
4 1.40818 
5 1.38361 
4 1.39205 
7 1.24227 
7 1.2547 
7 1.21549 
7 1.23014 
6 1.51124 
6 1.46868 
6 1.5196 
6 1.47324 
7 1.2302 
7 1.27723 
5 1.37381 
3 0.96086 
3 0.992922 
5 1.42028 
4 1.3985 
3 0.996613 
5 1.38934 
5 1.4028 
3 0.957351 
7 1.31153 
7 1.20271 
3 0.96811 
3 0.940993 
5 1.4043 
3 0.923653 
5 1.38714 
3 0.956773 
6 1.48659 
5 1.42983 
5 1.36707 
5 1.43334 
4 1.41208 
5 1.40552 
4 1.39654 
3 0.912748 
3 0.979698 
3 0.969419 
6 1.51083 
7 1.22944 
7 1.23455 
3 0.942549 
3 0.948375 
3 0.95308 
5 1.41074 
3 0.986365 
5 1.42386 
4 1.38759 
3 0.950207 
3 0.936413 
5 1.42481 
4 1.3978 
7 1.27627 
7 1.28781 
7 1.23574 
7 1.24491 
7 1.22933 
7 1.28163 
6 1.4936 
6 1.46924 
6 1.55067 
6 1.46328 
5 1.38792 
3 0.920201 
7 1.26686 
7 1.26024 
5 1.42652 
4 1.38906 
5 1.38762 
4 1.341 
5 1.4052 
4 1.4053 
5 1.42041 
3 0.948841 
3 0.955557 
3 0.945854 
7 1.2774 
7 1.25846 
6 1.45961 
5 1.42646 
5 1.37476 
4 1.36927 
ITEM: TIMESTEP
40000
ITEM: NUMBER OF ENTRIES
384
ITEM: BOX BOUNDS xy xz yz pp pp pp
-5.5761918441700109e-01 2.5831430710448043e+01 -1.5637434910886017e-01
6.0871029585403136e-03 2.6140564770091128e+01 -4.0181412486128548e-01
4.9097741401688211e-02 2.5782902258598291e+01 3.1465187304970005e-01
ITEM: ENTRIES btype dist
3 0.980674 
3 1.02136 
7 1.26879 
7 1.2659 
6 1.49036 
5 1.40314 
5 1.36883 
4 1.39608 
5 1.38345 
3 0.900392 
7 1.24901 
7 1.24934 
3 0.960803 
7 1.27341 
7 1.22326 
7 1.25872 
7 1.29333 
5 1.39067 
7 1.28749 
7 1.28376 
6 1.55519 
6 1.47705 
6 1.44593 
6 1.49243 
5 1.40074 
3 0.961284 
3 0.970185 
5 1.3897 
4 1.39921 
5 1.39299 
4 1.38895 
5 1.38687 
7 1.22501 
7 1.2462 
3 0.977212 
3 0.994633 
3 0.945093 
5 1.41492 
3 0.919838 
5 1.40471 
6 1.47829 
3 0.92431 
5 1.36413 
5 1.36939 
5 1.41826 
4 1.41101 
5 1.40149 
4 1.37087 
3 1.00896 
3 0.935136 
3 0.974946 
6 1.47649 
7 1.25473 
7 1.26165 
5 1.40843 
3 0.943502 
3 0.934224 
3 0.941622 
5 1.42954 
3 0.912883 
5 1.42725 
4 1.38212 
3 0.948946 
5 1.38061 
4 1.39772 
6 1.49747 
7 1.31043 
7 1.2548 
7 1.24162 
7 1.22874 
7 1.25073 
7 1.22771 
7 1.26106 
7 1.28152 
6 1.5174 
6 1.47572 
6 1.53224 
5 1.4164 
3 0.922616 
3 0.945316 
5 1.40834 
5 1.36301 
4 1.37324 
5 1.40638 
4 1.33922 
3 0.962587 
3 1.04766 
3 0.974961 
7 1.2269 
7 1.25122 
6 1.47487 
5 1.38956 
5 1.44353 
4 1.37773 
3 0.971796 
3 0.954329 
7 1.29044 
7 1.23926 
6 1.46794 
5 1.3995 
5 1.39007 
5 1.41064 
4 1.38769 
3 0.932166 
3 0.937268 
3 0.925413 
7 1.25177 
7 1.27079 
7 1.24826 
7 1.28178 
7 1.26462 
7 1.28083 
7 1.25589 
7 1.22285 
6 1.45437 
6 1.46987 
6 1.46654 
6 1.49815 
5 1.37651 
5 1.45465 
3 0.948078 
5 1.40754 
5 1.40718 
4 1.37861 
5 1.37539 
4 1.37551 
5 1.43 
4 1.38484 
5 1.42306 
3 0.978254 
3 0.955831 
7 1.23873 
7 1.2728 
3 0.94224 
3 0.978428 
3 0.945628 
3 0.915536 
5 1.42324 
5 1.40982 
4 1.37409 
5 1.40034 
5 1.43516 
4 1.3957 
3 0.930657 
3 0.969766 
6 1.49112 
6 1.46671 
7 1.25628 
7 1.25022 
5 1.37427 
4 1.38339 
3 0.986967 
3 0.970461 
3 0.959088 
3 0.932078 
3 0.93668 
5 1.38953 
3 0.952891 
5 1.39516 
4 1.42026 
7 1.26289 
7 1.27625 
3 0.94749 
6 1.50616 
7 1.30498 
7 1.26328 
7 1.27094 
7 1.23785 
6 1.48356 
6 1.4491 
6 1.48208 
3 0.909708 
7 1.25736 
7 1.24269 
5 1.37366 
5 1.39377 
5 1.39603 
5 1.3589 
5 1.40047 
4 1.4042 
3 0.994993 
3 0.957726 
7 1.22716 
7 1.24426 
6 1.4724 
5 1.38209 
4 1.37607 
5 1.40501 
4 1.34263 
3 0.909468 
3 0.886826 
7 1.29683 
7 1.25608 
6 1.42352 
5 1.4601 
5 1.40297 
3 0.978745 
5 1.41011 
4 1.38139 
3 0.989047 
7 1.24148 
7 1.24022 
7 1.23033 
7 1.28374 
7 1.27997 
7 1.25562 
5 1.39141 
7 1.25518 
7 1.30358 
6 1.49945 
6 1.45131 
5 1.38976 
4 1.37102 
6 1.46277 
3 0.960825 
6 1.49067 
3 0.922971 
5 1.38099 
4 1.36547 
5 1.33708 
4 1.39417 
5 1.42201 
4 1.38533 
7 1.24442 
7 1.26078 
3 0.965189 
5 1.3536 
4 1.38378 
3 0.965278 
3 0.94001 
3 0.938452 
5 1.38476 
4 1.40033 
6 1.49381 
3 0.94695 
5 1.39754 
5 1.374 
5 1.42068 
4 1.3802 
5 1.38183 
4 1.38758 
3 0.966747 
3 0.964457 
3 0.929125 
6 1.43877 
3 1.02159 
7 1.25171 
7 1.26373 
3 0.963382 
5 1.38734 
3 0.95521 
3 0.917146 
7 1.27077 
7 1.27384 
5 1.37254 
4 1.38148 
7 1.2479 
7 1.27077 
7 1.26365 
7 1.24536 
5 1.41415 
7 1.22647 
7 1.21966 
6 1.50016 
6 1.46787 
3 0.968316 
6 1.47252 
5 1.39961 
4 1.40225 
3 0.962768 
6 1.43907 
5 1.41651 
5 1.43623 
4 1.42506 
5 1.39667 
4 1.42262 
5 1.39902 
3 0.958495 
3 0.922455 
3 0.970936 
3 0.956723 
7 1.25763 
7 1.22861 
6 1.47539 
5 1.40045 
4 1.40207 
5 1.40383 
4 1.40322 
3 0.946901 
3 0.965686 
7 1.24768 
7 1.26171 
6 1.48651 
5 1.3992 
5 1.39807 
4 1.35691 
3 0.931017 
7 1.24802 
7 1.27426 
5 1.35813 
4 1.39802 
5 1.41367 
4 1.37139 
7 1.26822 
7 1.23116 
7 1.25529 
7 1.26027 
6 1.51694 
6 1.50433 
6 1.47718 
6 1.49091 
7 1.23201 
7 1.27691 
5 1.42785 
3 0.921176 
3 0.952361 
5 1.37628 
4 1.35825 
3 0.939469 
5 1.4435 
5 1.39143 
5 1.40073 
5 1.4462 
7 1.21986 
7 1.26909 
3 0.953037 
3 0.950737 
3 0.989977 
3 0.975924 
3 0.976116 
6 1.49163 
5 1.37025 
5 1.34762 
5 1.38715 
4 1.42992 
5 1.369 
4 1.38845 
3 0.944932 
3 0.929192 
3 0.899933 
6 1.4723 
3 0.969824 
7 1.27023 
7 1.2278 
3 0.939677 
3 0.936365 
3 0.964794 
5 1.42438 
4 1.40611 
3 0.948678 
5 1.37725 
4 1.40664 
3 0.94205 
3 0.9447 
7 1.22387 
7 1.2382 
7 1.24277 
7 1.24769 
7 1.26612 
7 1.24419 
6 1.50274 
6 1.47359 
6 1.55164 
6 1.50114 
5 1.3792 
3 0.943182 
7 1.24369 
7 1.26973 
5 1.40526 
4 1.37577 
5 1.38269 
4 1.39088 
5 1.38153 
4 1.40946 
5 1.39411 
5 1.39209 
3 0.990615 
3 0.970391 
7 1.25566 
7 1.23342 
6 1.47817 
5 1.3696 
5 1.42681 
4 1.36999 
ITEM: TIMESTEP
50000
ITEM: NUMBER OF ENTRIES
384
ITEM: BOX BOUNDS xy xz yz pp pp pp
-2.6300088881874448e-02 2.5911630864339120e+01 -8.9301756514431549e-02
-2.2375190081421081e-02 2.6052100495269819e+01 1.4263253197049341e-01
6.1497885132371977e-02 2.5770502114867679e+01 1.9772530518844797e-01
ITEM: ENTRIES btype dist
3 0.907267 
3 0.939547 
7 1.22834 
7 1.26651 
6 1.44932 
5 1.37192 
5 1.37806 
4 1.39129 
5 1.41709 
3 0.986434 
7 1.2538 
7 1.27768 
3 0.960774 
7 1.24911 
7 1.25194 
7 1.249 
7 1.24603 
5 1.39281 
7 1.28067 
7 1.26205 
6 1.43845 
6 1.47072 
6 1.47071 
6 1.48825 
5 1.36947 
3 0.934818 
3 0.981945 
5 1.43367 
4 1.38674 
5 1.38299 
5 1.40844 
7 1.29458 
7 1.21452 
3 0.982741 
3 0.902478 
3 0.964337 
3 0.97484 
5 1.41571 
4 1.41306 
5 1.39065 
6 1.51421 
3 0.987772 
5 1.38979 
5 1.3767 
5 1.39801 
4 1.39318 
5 1.39823 
4 1.41434 
3 0.937065 
3 0.929375 
3 0.943992 
6 1.46578 
7 1.23673 
7 1.26664 
3 0.978335 
3 0.968766 
5 1.37729 
4 1.37794 
3 0.980438 
5 1.39785 
4 1.37149 
3 0.985575 
5 1.37326 
4 1.37035 
6 1.50731 
7 1.30764 
7 1.31595 
7 1.24421 
7 1.31494 
7 1.24395 
7 1.22931 
7 1.27931 
7 1.27425 
6 1.49697 
6 1.47979 
6 1.49754 
5 1.40888 
3 0.992631 
3 0.933984 
5 1.39917 
5 1.34048 
3 0.92028 
3 0.968764 
5 1.40998 
5 1.42082 
4 1.37146 
3 0.900961 
3 0.981474 
7 1.27041 
7 1.24009 
6 1.46941 
5 1.41237 
5 1.41031 
4 1.39781 
3 0.97925 
3 0.980198 
7 1.23335 
7 1.23468 
6 1.46648 
5 1.42537 
5 1.39624 
5 1.39219 
4 1.39881 
3 0.955554 
3 0.943494 
3 0.954879 
7 1.25315 
7 1.23756 
7 1.2641 
7 1.27467 
7 1.26802 
7 1.29155 
7 1.24543 
7 1.2715 
6 1.48705 
6 1.47103 
6 1.49409 
6 1.44588 
5 1.40265 
5 1.42402 
3 0.972918 
5 1.41144 
5 1.40799 
4 1.42384 
5 1.39701 
4 1.40271 
5 1.40345 
4 1.39434 
3 0.953872 
3 0.92805 
7 1.26187 
7 1.25639 
3 0.973702 
5 1.41588 
3 0.962624 
3 0.935869 
3 0.974241 
5 1.40573 
5 1.36798 
4 1.37414 
5 1.41719 
5 1.41921 
4 1.36079 
3 0.993459 
3 0.947028 
6 1.51712 
6 1.50432 
3 0.963261 
7 1.25451 
7 1.23554 
3 0.927462 
5 1.41903 
3 0.953966 
5 1.37429 
3 0.971786 
5 1.41552 
4 1.39321 
7 1.22158 
7 1.24585 
3 0.947495 
6 1.46098 
7 1.26016 
7 1.23857 
7 1.25388 
7 1.22519 
6 1.51708 
6 1.515 
6 1.48779 
3 0.916113 
7 1.26891 
7 1.24366 
5 1.41344 
5 1.41325 
5 1.38718 
4 1.35931 
5 1.40073 
5 1.33939 
4 1.35878 
3 0.938953 
3 0.95919 
3 0.952488 
3 0.944774 
7 1.23673 
7 1.27462 
6 1.48316 
5 1.38889 
4 1.37004 
5 1.41682 
4 1.3958 
3 1.00266 
3 0.983584 
7 1.26889 
7 1.25961 
6 1.45654 
5 1.4351 
5 1.39736 
3 0.911302 
5 1.39728 
4 1.38606 
3 0.929247 
7 1.25392 
7 1.29911 
7 1.26857 
7 1.28212 
7 1.28304 
7 1.28453 
5 1.41664 
7 1.25088 
7 1.24336 
6 1.46329 
6 1.45084 
5 1.38849 
4 1.40704 
6 1.49045 
3 0.946967 
6 1.47074 
3 0.949965 
5 1.39368 
4 1.41832 
5 1.40313 
4 1.37 
5 1.40112 
4 1.37431 
7 1.2345 
7 1.2268 
3 0.941497 
3 0.94521 
3 0.984381 
5 1.41432 
4 1.39151 
3 0.927747 
5 1.4254 
4 1.37932 
6 1.53059 
3 0.970578 
5 1.39521 
5 1.39876 
5 1.39586 
4 1.39403 
5 1.40029 
4 1.39011 
3 0.962698 
3 0.947987 
3 1.01457 
6 1.4766 
3 0.923883 
7 1.26069 
7 1.22582 
3 0.986749 
3 0.971904 
5 1.35971 
4 1.38694 
3 1.01036 
3 0.94763 
7 1.22775 
7 1.24118 
5 1.40984 
4 1.39642 
7 1.28644 
7 1.27271 
7 1.24266 
7 1.29462 
5 1.42406 
7 1.29392 
7 1.23976 
6 1.48348 
6 1.50014 
3 0.985856 
6 1.49526 
5 1.39933 
4 1.38156 
3 0.964839 
6 1.47212 
5 1.36349 
3 0.960671 
5 1.40778 
5 1.4315 
4 1.38185 
5 1.39821 
3 0.97338 
3 0.954673 
7 1.23902 
7 1.30286 
6 1.48144 
5 1.42064 
4 1.35612 
5 1.43161 
4 1.37273 
3 0.947671 
3 0.958106 
7 1.26452 
7 1.28779 
6 1.50354 
5 1.4242 
5 1.40298 
4 1.42672 
3 0.921709 
7 1.25697 
7 1.27363 
5 1.38794 
4 1.3919 
5 1.3979 
4 1.40689 
7 1.23672 
7 1.22227 
7 1.26494 
7 1.27313 
6 1.48689 
6 1.45383 
6 1.48418 
6 1.47731 
7 1.23818 
7 1.24421 
5 1.38754 
3 0.976883 
3 0.933839 
5 1.40909 
4 1.33915 
3 0.961316 
5 1.39801 
5 1.43747 
3 0.948436 
7 1.2412 
7 1.24645 
5 1.40051 
3 0.920251 
3 0.952249 
3 0.931522 
5 1.42014 
3 0.958112 
6 1.5095 
5 1.40933 
5 1.37929 
5 1.42178 
4 1.39333 
5 1.34738 
4 1.327 
3 0.954801 
3 0.917353 
3 0.907843 
6 1.49458 
3 0.983025 
7 1.24649 
7 1.27917 
3 0.976394 
3 0.971256 
5 1.42825 
4 1.38199 
5 1.35907 
3 0.935518 
3 0.976972 
5 1.42649 
4 1.36114 
3 0.929816 
3 0.997736 
5 1.40446 
4 1.38664 
7 1.27902 
7 1.2468 
7 1.26104 
7 1.24373 
6 1.50281 
6 1.45925 
6 1.49366 
6 1.49838 
5 1.36841 
3 0.931192 
7 1.21096 
7 1.22512 
5 1.38569 
4 1.35218 
5 1.4077 
4 1.39165 
7 1.24171 
7 1.28895 
5 1.35996 
3 0.951409 
3 0.978879 
7 1.26609 
7 1.26418 
6 1.43867 
5 1.40563 
5 1.42906 
4 1.38601 
ITEM: TIMESTEP
60000
ITEM: NUMBER OF ENTRIES
384
ITEM: BOX BOUNDS xy xz yz pp pp pp
-2.2530183168806855e-01 2.6190841105905182e+01 -2.1204488160484741e-01
5.0707595451825682e-02 2.6089341529254330e+01 3.4558415582084157e-01
9.9720431994510861e-02 2.5732279568005506e+01 3.0804912470619034e-01
ITEM: ENTRIES btype dist
3 0.949904 
3 0.969876 
7 1.23857 
7 1.21972 
6 1.45581 
5 1.41233 
5 1.3739 
4 1.38861 
5 1.42304 
3 0.953962 
7 1.26199 
7 1.26297 
3 0.998885 
7 1.26184 
7 1.26318 
7 1.2461 
7 1.25941 
5 1.38127 
7 1.21875 
7 1.23847 
6 1.4876 
6 1.52148 
6 1.4961 
6 1.49963 
5 1.41507 
3 0.980387 
3 0.950307 
5 1.39142 
4 1.43915 
5 1.35662 
4 1.38757 
5 1.40973 
5 1.41818 
5 1.38727 
7 1.25825 
7 1.27264 
3 1.00891 
3 0.932202 
3 0.987459 
3 0.949474 
6 1.49481 
3 0.945984 
5 1.42719 
5 1.38973 
5 1.35414 
4 1.39109 
5 1.41291 
4 1.41966 
3 0.94049 
3 0.931302 
3 1.00325 
6 1.49722 
7 1.27329 
7 1.24357 
3 0.984383 
5 1.37011 
4 1.37215 
3 0.951524 
3 1.01004 
3 0.97177 
5 1.42271 
4 1.36739 
3 0.997434 
5 1.3912 
4 1.35735 
6 1.4767 
7 1.24205 
7 1.25426 
7 1.27456 
7 1.26298 
7 1.2801 
7 1.26143 
7 1.2351 
7 1.24602 
6 1.49587 
6 1.47975 
6 1.48562 
5 1.41629 
3 0.994352 
3 0.926861 
5 1.33468 
3 0.940502 
5 1.38488 
4 1.32424 
5 1.40276 
5 1.39085 
3 0.948182 
3 0.929371 
7 1.2685 
7 1.22343 
6 1.51393 
5 1.42646 
5 1.38475 
4 1.39924 
3 0.956925 
3 0.932694 
7 1.25774 
7 1.26749 
6 1.46591 
5 1.39833 
5 1.39005 
5 1.39814 
4 1.42151 
3 0.973909 
3 1.00716 
3 0.965598 
7 1.2507 
7 1.24925 
7 1.26082 
7 1.24516 
7 1.25259 
7 1.24911 
7 1.25218 
7 1.23578 
6 1.46485 
6 1.49374 
6 1.44863 
6 1.46053 
5 1.42128 
5 1.42362 
3 0.968162 
5 1.40424 
5 1.396 
4 1.38638 
5 1.38664 
5 1.39439 
4 1.40097 
3 0.940249 
3 0.964078 
7 1.25185 
7 1.28033 
3 0.913184 
5 1.38667 
4 1.39389 
3 0.981526 
3 0.992946 
3 0.98984 
5 1.39423 
5 1.39743 
4 1.40524 
5 1.38783 
5 1.40624 
4 1.44521 
3 0.965771 
3 0.994485 
6 1.46814 
6 1.48261 
3 0.923997 
7 1.25097 
7 1.28142 
3 0.998748 
3 0.933521 
5 1.40083 
5 1.4099 
4 1.40338 
3 0.99548 
5 1.37017 
3 0.971087 
5 1.40794 
3 0.978483 
5 1.38429 
4 1.40009 
7 1.30597 
7 1.24196 
3 0.949065 
6 1.49903 
7 1.25656 
7 1.2646 
7 1.24056 
7 1.28542 
6 1.49447 
6 1.43851 
6 1.50619 
3 0.94822 
7 1.26497 
7 1.26728 
5 1.43814 
5 1.39496 
5 1.36905 
4 1.40844 
3 0.978803 
3 0.981918 
7 1.28145 
7 1.24207 
6 1.51721 
5 1.37716 
4 1.39435 
5 1.39258 
4 1.36786 
3 0.958865 