irmof1 LAMMPS input file. Created on 25-04-2025 using Sahuaro.

424 atoms
512 bonds
576 angles
768 dihedrals
192 impropers

7 atom types
7 bond types
7 angle types
8 dihedral types
3 improper types

0.0 25.832 xlo xhi
0.0 25.832 ylo yhi
0.0 25.832 zlo zhi

0.000000 0.000000 0.000000 xy xz yz

Masses

1  65.37   # Zn1
2  15.9994   # O1
3  15.9994   # O2
4  12.0107   # C1
5  12.0107   # C2
6  12.0107   # C3
7  1.00794   # H1

Atoms

1     0   1   1.275      20.49510880     20.49510880     7.57910880     
2     0   1   1.275      5.33689120      20.49510880     18.25289120    
3     0   1   1.275      5.33689120      20.49510880     7.57910880     
4     0   1   1.275      5.33689120      5.33689120      7.57910880     
5     0   1   1.275      5.33689120      18.25289120     20.49510880    
6     0   1   1.275      7.57910880      5.33689120      20.49510880    
7     0   1   1.275      5.33689120      5.33689120      18.25289120    
8     0   1   1.275      20.49510880     20.49510880     18.25289120    
9     0   1   1.275      20.49510880     5.33689120      7.57910880     
10    0   1   1.275      20.49510880     5.33689120      18.25289120    
11    0   1   1.275      20.49510880     7.57910880      5.33689120     
12    0   1   1.275      7.57910880      20.49510880     5.33689120     
13    0   1   1.275      18.25289120     18.25289120     7.57910880     
14    0   1   1.275      7.57910880      7.57910880      7.57910880     
15    0   1   1.275      20.49510880     7.57910880      20.49510880    
16    0   1   1.275      5.33689120      7.57910880      5.33689120     
17    0   1   1.275      7.57910880      7.57910880      18.25289120    
18    0   1   1.275      5.33689120      18.25289120     5.33689120     
19    0   1   1.275      5.33689120      7.57910880      20.49510880    
20    0   1   1.275      18.25289120     20.49510880     5.33689120     
21    0   1   1.275      18.25289120     7.57910880      18.25289120    
22    0   1   1.275      18.25289120     5.33689120      20.49510880    
23    0   1   1.275      7.57910880      20.49510880     20.49510880    
24    0   1   1.275      18.25289120     18.25289120     18.25289120    
25    0   1   1.275      18.25289120     7.57910880      7.57910880     
26    0   1   1.275      18.25289120     20.49510880     20.49510880    
27    0   1   1.275      18.25289120     5.33689120      5.33689120     
28    0   1   1.275      7.57910880      18.25289120     7.57910880     
29    0   1   1.275      20.49510880     18.25289120     20.49510880    
30    0   1   1.275      7.57910880      5.33689120      5.33689120     
31    0   1   1.275      7.57910880      18.25289120     18.25289120    
32    0   1   1.275      20.49510880     18.25289120     5.33689120     
33    0   2   -1.5       6.45800000      6.45800000      19.37400000    
34    0   2   -1.5       19.37400000     6.45800000      19.37400000    
35    0   2   -1.5       19.37400000     6.45800000      6.45800000     
36    0   2   -1.5       6.45800000      19.37400000     6.45800000     
37    0   2   -1.5       19.37400000     19.37400000     19.37400000    
38    0   2   -1.5       6.45800000      6.45800000      6.45800000     
39    0   2   -1.5       6.45800000      19.37400000     19.37400000    
40    0   2   -1.5       19.37400000     19.37400000     6.45800000     
41    0   3   -0.6       5.63395920      22.37051200     18.54995920    
42    0   3   -0.6       3.46148800      7.28204080      5.63395920     
43    0   3   -0.6       7.28204080      22.37051200     5.63395920     
44    0   3   -0.6       22.37051200     18.54995920     20.19804080    
45    0   3   -0.6       20.19804080     9.45451200      20.19804080    
46    0   3   -0.6       3.46148800      18.54995920     5.63395920     
47    0   3   -0.6       3.46148800      20.19804080     18.54995920    
48    0   3   -0.6       3.46148800      5.63395920      7.28204080     
49    0   3   -0.6       22.37051200     5.63395920      18.54995920    
50    0   3   -0.6       22.37051200     20.19804080     7.28204080     
51    0   3   -0.6       18.54995920     7.28204080      16.37748800    
52    0   3   -0.6       5.63395920      20.19804080     9.45451200     
53    0   3   -0.6       7.28204080      5.63395920      22.37051200    
54    0   3   -0.6       3.46148800      7.28204080      20.19804080    
55    0   3   -0.6       22.37051200     7.28204080      5.63395920     
56    0   3   -0.6       20.19804080     7.28204080      3.46148800     
57    0   3   -0.6       20.19804080     22.37051200     7.28204080     
58    0   3   -0.6       22.37051200     7.28204080      20.19804080    
59    0   3   -0.6       5.63395920      5.63395920      9.45451200     
60    0   3   -0.6       22.37051200     5.63395920      7.28204080     
61    0   3   -0.6       22.37051200     20.19804080     18.54995920    
62    0   3   -0.6       20.19804080     22.37051200     18.54995920    
63    0   3   -0.6       3.46148800      20.19804080     7.28204080     
64    0   3   -0.6       3.46148800      5.63395920      18.54995920    
65    0   3   -0.6       18.54995920     18.54995920     16.37748800    
66    0   3   -0.6       5.63395920      16.37748800     20.19804080    
67    0   3   -0.6       22.37051200     18.54995920     5.63395920     
68    0   3   -0.6       3.46148800      18.54995920     20.19804080    
69    0   3   -0.6       7.28204080      9.45451200      18.54995920    
70    0   3   -0.6       7.28204080      16.37748800     18.54995920    
71    0   3   -0.6       20.19804080     5.63395920      16.37748800    
72    0   3   -0.6       20.19804080     3.46148800      7.28204080     
73    0   3   -0.6       9.45451200      5.63395920      20.19804080    
74    0   3   -0.6       9.45451200      7.28204080      7.28204080     
75    0   3   -0.6       7.28204080      7.28204080      16.37748800    
76    0   3   -0.6       5.63395920      18.54995920     3.46148800     
77    0   3   -0.6       18.54995920     3.46148800      20.19804080    
78    0   3   -0.6       7.28204080      22.37051200     20.19804080    
79    0   3   -0.6       16.37748800     18.54995920     7.28204080     
80    0   3   -0.6       7.28204080      3.46148800      5.63395920     
81    0   3   -0.6       18.54995920     22.37051200     5.63395920     
82    0   3   -0.6       20.19804080     20.19804080     9.45451200     
83    0   3   -0.6       5.63395920      20.19804080     16.37748800    
84    0   3   -0.6       18.54995920     7.28204080      9.45451200     
85    0   3   -0.6       7.28204080      18.54995920     9.45451200     
86    0   3   -0.6       9.45451200      20.19804080     5.63395920     
87    0   3   -0.6       5.63395920      3.46148800      18.54995920    
88    0   3   -0.6       5.63395920      22.37051200     7.28204080     
89    0   3   -0.6       5.63395920      3.46148800      7.28204080     
90    0   3   -0.6       7.28204080      7.28204080      9.45451200     
91    0   3   -0.6       18.54995920     18.54995920     9.45451200     
92    0   3   -0.6       9.45451200      18.54995920     7.28204080     
93    0   3   -0.6       18.54995920     3.46148800      5.63395920     
94    0   3   -0.6       18.54995920     22.37051200     20.19804080    
95    0   3   -0.6       5.63395920      18.54995920     22.37051200    
96    0   3   -0.6       7.28204080      3.46148800      20.19804080    
97    0   3   -0.6       5.63395920      5.63395920      16.37748800    
98    0   3   -0.6       20.19804080     20.19804080     16.37748800    
99    0   3   -0.6       20.19804080     5.63395920      9.45451200     
100   0   3   -0.6       7.28204080      18.54995920     16.37748800    
101   0   3   -0.6       5.63395920      9.45451200      5.63395920     
102   0   3   -0.6       20.19804080     3.46148800      18.54995920    
103   0   3   -0.6       20.19804080     18.54995920     3.46148800     
104   0   3   -0.6       20.19804080     9.45451200      5.63395920     
105   0   3   -0.6       20.19804080     16.37748800     20.19804080    
106   0   3   -0.6       18.54995920     9.45451200      18.54995920    
107   0   3   -0.6       16.37748800     18.54995920     18.54995920    
108   0   3   -0.6       7.28204080      20.19804080     3.46148800     
109   0   3   -0.6       18.54995920     5.63395920      3.46148800     
110   0   3   -0.6       16.37748800     20.19804080     5.63395920     
111   0   3   -0.6       18.54995920     16.37748800     7.28204080     
112   0   3   -0.6       7.28204080      9.45451200      7.28204080     
113   0   3   -0.6       16.37748800     5.63395920      20.19804080    
114   0   3   -0.6       9.45451200      5.63395920      5.63395920     
115   0   3   -0.6       9.45451200      20.19804080     20.19804080    
116   0   3   -0.6       20.19804080     7.28204080      22.37051200    
117   0   3   -0.6       5.63395920      7.28204080      3.46148800     
118   0   3   -0.6       18.54995920     20.19804080     22.37051200    
119   0   3   -0.6       16.37748800     7.28204080      7.28204080     
120   0   3   -0.6       9.45451200      7.28204080      18.54995920    
121   0   3   -0.6       5.63395920      16.37748800     5.63395920     
122   0   3   -0.6       5.63395920      9.45451200      20.19804080    
123   0   3   -0.6       5.63395920      7.28204080      22.37051200    
124   0   3   -0.6       18.54995920     20.19804080     3.46148800     
125   0   3   -0.6       16.37748800     7.28204080      18.54995920    
126   0   3   -0.6       18.54995920     5.63395920      22.37051200    
127   0   3   -0.6       7.28204080      20.19804080     22.37051200    
128   0   3   -0.6       18.54995920     16.37748800     18.54995920    
129   0   3   -0.6       18.54995920     9.45451200      7.28204080     
130   0   3   -0.6       16.37748800     20.19804080     20.19804080    
131   0   3   -0.6       16.37748800     5.63395920      5.63395920     
132   0   3   -0.6       7.28204080      16.37748800     7.28204080     
133   0   3   -0.6       20.19804080     18.54995920     22.37051200    
134   0   3   -0.6       7.28204080      5.63395920      3.46148800     
135   0   3   -0.6       9.45451200      18.54995920     18.54995920    
136   0   3   -0.6       20.19804080     16.37748800     5.63395920     
137   0   4   0.475      2.87510160      6.45800000      6.45800000     
138   0   4   0.475      22.95689840     6.45800000      19.37400000    
139   0   4   0.475      22.95689840     6.45800000      6.45800000     
140   0   4   0.475      22.95689840     19.37400000     19.37400000    
141   0   4   0.475      2.87510160      19.37400000     6.45800000     
142   0   4   0.475      2.87510160      6.45800000      19.37400000    
143   0   4   0.475      22.95689840     19.37400000     6.45800000     
144   0   4   0.475      2.87510160      19.37400000     19.37400000    
145   0   4   0.475      6.45800000      15.79110160     19.37400000    
146   0   4   0.475      19.37400000     6.45800000      15.79110160    
147   0   4   0.475      6.45800000      22.95689840     19.37400000    
148   0   4   0.475      19.37400000     22.95689840     6.45800000     
149   0   4   0.475      6.45800000      19.37400000     10.04089840    
150   0   4   0.475      6.45800000      22.95689840     6.45800000     
151   0   4   0.475      6.45800000      2.87510160      6.45800000     
152   0   4   0.475      6.45800000      6.45800000      10.04089840    
153   0   4   0.475      19.37400000     19.37400000     10.04089840    
154   0   4   0.475      10.04089840     19.37400000     6.45800000     
155   0   4   0.475      19.37400000     2.87510160      6.45800000     
156   0   4   0.475      19.37400000     22.95689840     19.37400000    
157   0   4   0.475      6.45800000      2.87510160      19.37400000    
158   0   4   0.475      6.45800000      6.45800000      15.79110160    
159   0   4   0.475      19.37400000     19.37400000     15.79110160    
160   0   4   0.475      19.37400000     6.45800000      10.04089840    
161   0   4   0.475      6.45800000      19.37400000     15.79110160    
162   0   4   0.475      19.37400000     2.87510160      19.37400000    
163   0   4   0.475      19.37400000     10.04089840     19.37400000    
164   0   4   0.475      6.45800000      19.37400000     2.87510160     
165   0   4   0.475      19.37400000     6.45800000      2.87510160     
166   0   4   0.475      15.79110160     19.37400000     6.45800000     
167   0   4   0.475      6.45800000      10.04089840     6.45800000     
168   0   4   0.475      10.04089840     6.45800000      6.45800000     
169   0   4   0.475      10.04089840     6.45800000      19.37400000    
170   0   4   0.475      6.45800000      10.04089840     19.37400000    
171   0   4   0.475      6.45800000      6.45800000      22.95689840    
172   0   4   0.475      19.37400000     19.37400000     2.87510160     
173   0   4   0.475      15.79110160     6.45800000      19.37400000    
174   0   4   0.475      19.37400000     6.45800000      22.95689840    
175   0   4   0.475      6.45800000      19.37400000     22.95689840    
176   0   4   0.475      19.37400000     15.79110160     19.37400000    
177   0   4   0.475      19.37400000     10.04089840     6.45800000     
178   0   4   0.475      15.79110160     19.37400000     19.37400000    
179   0   4   0.475      15.79110160     6.45800000      6.45800000     
180   0   4   0.475      6.45800000      15.79110160     6.45800000     
181   0   4   0.475      19.37400000     19.37400000     22.95689840    
182   0   4   0.475      6.45800000      6.45800000      2.87510160     
183   0   4   0.475      10.04089840     19.37400000     19.37400000    
184   0   4   0.475      19.37400000     15.79110160     6.45800000     
185   0   5   0.125      1.38976160      6.45800000      6.45800000     
186   0   5   0.125      24.44223840     6.45800000      19.37400000    
187   0   5   0.125      24.44223840     6.45800000      6.45800000     
188   0   5   0.125      24.44223840     19.37400000     19.37400000    
189   0   5   0.125      1.38976160      19.37400000     6.45800000     
190   0   5   0.125      1.38976160      6.45800000      19.37400000    
191   0   5   0.125      24.44223840     19.37400000     6.45800000     
192   0   5   0.125      1.38976160      19.37400000     19.37400000    
193   0   5   0.125      6.45800000      14.30576160     19.37400000    
194   0   5   0.125      19.37400000     6.45800000      14.30576160    
195   0   5   0.125      6.45800000      24.44223840     19.37400000    
196   0   5   0.125      19.37400000     24.44223840     6.45800000     
197   0   5   0.125      6.45800000      19.37400000     11.52623840    
198   0   5   0.125      6.45800000      24.44223840     6.45800000     
199   0   5   0.125      6.45800000      1.38976160      6.45800000     
200   0   5   0.125      6.45800000      6.45800000      11.52623840    
201   0   5   0.125      19.37400000     19.37400000     11.52623840    
202   0   5   0.125      11.52623840     19.37400000     6.45800000     
203   0   5   0.125      19.37400000     1.38976160      6.45800000     
204   0   5   0.125      19.37400000     24.44223840     19.37400000    
205   0   5   0.125      6.45800000      1.38976160      19.37400000    
206   0   5   0.125      6.45800000      6.45800000      14.30576160    
207   0   5   0.125      19.37400000     19.37400000     14.30576160    
208   0   5   0.125      19.37400000     6.45800000      11.52623840    
209   0   5   0.125      6.45800000      19.37400000     14.30576160    
210   0   5   0.125      19.37400000     1.38976160      19.37400000    
211   0   5   0.125      19.37400000     11.52623840     19.37400000    
212   0   5   0.125      6.45800000      19.37400000     1.38976160     
213   0   5   0.125      19.37400000     6.45800000      1.38976160     
214   0   5   0.125      14.30576160     19.37400000     6.45800000     
215   0   5   0.125      6.45800000      11.52623840     6.45800000     
216   0   5   0.125      11.52623840     6.45800000      6.45800000     
217   0   5   0.125      11.52623840     6.45800000      19.37400000    
218   0   5   0.125      6.45800000      11.52623840     19.37400000    
219   0   5   0.125      6.45800000      6.45800000      24.44223840    
220   0   5   0.125      19.37400000     19.37400000     1.38976160     
221   0   5   0.125      14.30576160     6.45800000      19.37400000    
222   0   5   0.125      19.37400000     6.45800000      24.44223840    
223   0   5   0.125      6.45800000      19.37400000     24.44223840    
224   0   5   0.125      19.37400000     14.30576160     19.37400000    
225   0   5   0.125      19.37400000     11.52623840     6.45800000     
226   0   5   0.125      14.30576160     19.37400000     19.37400000    
227   0   5   0.125      14.30576160     6.45800000      6.45800000     
228   0   5   0.125      6.45800000      14.30576160     6.45800000     
229   0   5   0.125      19.37400000     19.37400000     24.44223840    
230   0   5   0.125      6.45800000      6.45800000      1.38976160     
231   0   5   0.125      11.52623840     19.37400000     19.37400000    
232   0   5   0.125      19.37400000     14.30576160     6.45800000     
233   0   6   -0.15      5.60812720      25.13711920     18.52412720    
234   0   6   -0.15      0.69488080      7.30787280      5.60812720     
235   0   6   -0.15      7.30787280      25.13711920     5.60812720     
236   0   6   -0.15      25.13711920     18.52412720     20.22387280    
237   0   6   -0.15      20.22387280     12.22111920     20.22387280    
238   0   6   -0.15      0.69488080      18.52412720     5.60812720     
239   0   6   -0.15      0.69488080      20.22387280     18.52412720    
240   0   6   -0.15      0.69488080      5.60812720      7.30787280     
241   0   6   -0.15      25.13711920     5.60812720      18.52412720    
242   0   6   -0.15      25.13711920     20.22387280     7.30787280     
243   0   6   -0.15      18.52412720     7.30787280      13.61088080    
244   0   6   -0.15      5.60812720      20.22387280     12.22111920    
245   0   6   -0.15      7.30787280      5.60812720      25.13711920    
246   0   6   -0.15      0.69488080      7.30787280      20.22387280    
247   0   6   -0.15      25.13711920     7.30787280      5.60812720     
248   0   6   -0.15      20.22387280     7.30787280      0.69488080     
249   0   6   -0.15      20.22387280     25.13711920     7.30787280     
250   0   6   -0.15      25.13711920     7.30787280      20.22387280    
251   0   6   -0.15      5.60812720      5.60812720      12.22111920    
252   0   6   -0.15      25.13711920     5.60812720      7.30787280     
253   0   6   -0.15      25.13711920     20.22387280     18.52412720    
254   0   6   -0.15      20.22387280     25.13711920     18.52412720    
255   0   6   -0.15      0.69488080      20.22387280     7.30787280     
256   0   6   -0.15      0.69488080      5.60812720      18.52412720    
257   0   6   -0.15      18.52412720     18.52412720     13.61088080    
258   0   6   -0.15      5.60812720      13.61088080     20.22387280    
259   0   6   -0.15      25.13711920     18.52412720     5.60812720     
260   0   6   -0.15      0.69488080      18.52412720     20.22387280    
261   0   6   -0.15      7.30787280      12.22111920     18.52412720    
262   0   6   -0.15      7.30787280      13.61088080     18.52412720    
263   0   6   -0.15      20.22387280     5.60812720      13.61088080    
264   0   6   -0.15      20.22387280     0.69488080      7.30787280     
265   0   6   -0.15      12.22111920     5.60812720      20.22387280    
266   0   6   -0.15      12.22111920     7.30787280      7.30787280     
267   0   6   -0.15      7.30787280      7.30787280      13.61088080    
268   0   6   -0.15      5.60812720      18.52412720     0.69488080     
269   0   6   -0.15      18.52412720     0.69488080      20.22387280    
270   0   6   -0.15      7.30787280      25.13711920     20.22387280    
271   0   6   -0.15      13.61088080     18.52412720     7.30787280     
272   0   6   -0.15      7.30787280      0.69488080      5.60812720     
273   0   6   -0.15      18.52412720     25.13711920     5.60812720     
274   0   6   -0.15      20.22387280     20.22387280     12.22111920    
275   0   6   -0.15      5.60812720      20.22387280     13.61088080    
276   0   6   -0.15      18.52412720     7.30787280      12.22111920    
277   0   6   -0.15      7.30787280      18.52412720     12.22111920    
278   0   6   -0.15      12.22111920     20.22387280     5.60812720     
279   0   6   -0.15      5.60812720      0.69488080      18.52412720    
280   0   6   -0.15      5.60812720      25.13711920     7.30787280     
281   0   6   -0.15      5.60812720      0.69488080      7.30787280     
282   0   6   -0.15      7.30787280      7.30787280      12.22111920    
283   0   6   -0.15      18.52412720     18.52412720     12.22111920    
284   0   6   -0.15      12.22111920     18.52412720     7.30787280     
285   0   6   -0.15      18.52412720     0.69488080      5.60812720     
286   0   6   -0.15      18.52412720     25.13711920     20.22387280    
287   0   6   -0.15      5.60812720      18.52412720     25.13711920    
288   0   6   -0.15      7.30787280      0.69488080      20.22387280    
289   0   6   -0.15      5.60812720      5.60812720      13.61088080    
290   0   6   -0.15      20.22387280     20.22387280     13.61088080    
291   0   6   -0.15      20.22387280     5.60812720      12.22111920    
292   0   6   -0.15      7.30787280      18.52412720     13.61088080    
293   0   6   -0.15      5.60812720      12.22111920     5.60812720     
294   0   6   -0.15      20.22387280     0.69488080      18.52412720    
295   0   6   -0.15      20.22387280     18.52412720     0.69488080     
296   0   6   -0.15      20.22387280     12.22111920     5.60812720     
297   0   6   -0.15      20.22387280     13.61088080     20.22387280    
298   0   6   -0.15      18.52412720     12.22111920     18.52412720    
299   0   6   -0.15      13.61088080     18.52412720     18.52412720    
300   0   6   -0.15      7.30787280      20.22387280     0.69488080     
301   0   6   -0.15      18.52412720     5.60812720      0.69488080     
302   0   6   -0.15      13.61088080     20.22387280     5.60812720     
303   0   6   -0.15      18.52412720     13.61088080     7.30787280     
304   0   6   -0.15      7.30787280      12.22111920     7.30787280     
305   0   6   -0.15      13.61088080     5.60812720      20.22387280    
306   0   6   -0.15      12.22111920     5.60812720      5.60812720     
307   0   6   -0.15      12.22111920     20.22387280     20.22387280    
308   0   6   -0.15      20.22387280     7.30787280      25.13711920    
309   0   6   -0.15      5.60812720      7.30787280      0.69488080     
310   0   6   -0.15      18.52412720     20.22387280     25.13711920    
311   0   6   -0.15      13.61088080     7.30787280      7.30787280     
312   0   6   -0.15      12.22111920     7.30787280      18.52412720    
313   0   6   -0.15      5.60812720      13.61088080     5.60812720     
314   0   6   -0.15      5.60812720      12.22111920     20.22387280    
315   0   6   -0.15      5.60812720      7.30787280      25.13711920    
316   0   6   -0.15      18.52412720     20.22387280     0.69488080     
317   0   6   -0.15      13.61088080     7.30787280      18.52412720    
318   0   6   -0.15      18.52412720     5.60812720      25.13711920    
319   0   6   -0.15      7.30787280      20.22387280     25.13711920    
320   0   6   -0.15      18.52412720     13.61088080     18.52412720    
321   0   6   -0.15      18.52412720     12.22111920     7.30787280     
322   0   6   -0.15      13.61088080     20.22387280     20.22387280    
323   0   6   -0.15      13.61088080     5.60812720      5.60812720     
324   0   6   -0.15      7.30787280      13.61088080     7.30787280     
325   0   6   -0.15      20.22387280     18.52412720     25.13711920    
326   0   6   -0.15      7.30787280      5.60812720      0.69488080     
327   0   6   -0.15      12.22111920     18.52412720     18.52412720    
328   0   6   -0.15      20.22387280     13.61088080     5.60812720     
329   0   7   0.15       5.03982320      24.67472640     17.95582320    
330   0   7   0.15       1.15727360      7.87617680      5.03982320     
331   0   7   0.15       7.87617680      24.67472640     5.03982320     
332   0   7   0.15       24.67472640     17.95582320     20.79217680    
333   0   7   0.15       20.79217680     11.75872640     20.79217680    
334   0   7   0.15       1.15727360      17.95582320     5.03982320     
335   0   7   0.15       1.15727360      20.79217680     17.95582320    
336   0   7   0.15       1.15727360      5.03982320      7.87617680     
337   0   7   0.15       24.67472640     5.03982320      17.95582320    
338   0   7   0.15       24.67472640     20.79217680     7.87617680     
339   0   7   0.15       17.95582320     7.87617680      14.07327360    
340   0   7   0.15       5.03982320      20.79217680     11.75872640    
341   0   7   0.15       7.87617680      5.03982320      24.67472640    
342   0   7   0.15       1.15727360      7.87617680      20.79217680    
343   0   7   0.15       24.67472640     7.87617680      5.03982320     
344   0   7   0.15       20.79217680     7.87617680      1.15727360     
345   0   7   0.15       20.79217680     24.67472640     7.87617680     
346   0   7   0.15       24.67472640     7.87617680      20.79217680    
347   0   7   0.15       5.03982320      5.03982320      11.75872640    
348   0   7   0.15       24.67472640     5.03982320      7.87617680     
349   0   7   0.15       24.67472640     20.79217680     17.95582320    
350   0   7   0.15       20.79217680     24.67472640     17.95582320    
351   0   7   0.15       1.15727360      20.79217680     7.87617680     
352   0   7   0.15       1.15727360      5.03982320      17.95582320    
353   0   7   0.15       17.95582320     17.95582320     14.07327360    
354   0   7   0.15       5.03982320      14.07327360     20.79217680    
355   0   7   0.15       24.67472640     17.95582320     5.03982320     
356   0   7   0.15       1.15727360      17.95582320     20.79217680    
357   0   7   0.15       7.87617680      11.75872640     17.95582320    
358   0   7   0.15       7.87617680      14.07327360     17.95582320    
359   0   7   0.15       20.79217680     5.03982320      14.07327360    
360   0   7   0.15       20.79217680     1.15727360      7.87617680     
361   0   7   0.15       11.75872640     5.03982320      20.79217680    
362   0   7   0.15       11.75872640     7.87617680      7.87617680     
363   0   7   0.15       7.87617680      7.87617680      14.07327360    
364   0   7   0.15       5.03982320      17.95582320     1.15727360     
365   0   7   0.15       17.95582320     1.15727360      20.79217680    
366   0   7   0.15       7.87617680      24.67472640     20.79217680    
367   0   7   0.15       14.07327360     17.95582320     7.87617680     
368   0   7   0.15       7.87617680      1.15727360      5.03982320     
369   0   7   0.15       17.95582320     24.67472640     5.03982320     
370   0   7   0.15       20.79217680     20.79217680     11.75872640    
371   0   7   0.15       5.03982320      20.79217680     14.07327360    
372   0   7   0.15       17.95582320     7.87617680      11.75872640    
373   0   7   0.15       7.87617680      17.95582320     11.75872640    
374   0   7   0.15       11.75872640     20.79217680     5.03982320     
375   0   7   0.15       5.03982320      1.15727360      17.95582320    
376   0   7   0.15       5.03982320      24.67472640     7.87617680     
377   0   7   0.15       5.03982320      1.15727360      7.87617680     
378   0   7   0.15       7.87617680      7.87617680      11.75872640    
379   0   7   0.15       17.95582320     17.95582320     11.75872640    
380   0   7   0.15       11.75872640     17.95582320     7.87617680     
381   0   7   0.15       17.95582320     1.15727360      5.03982320     
382   0   7   0.15       17.95582320     24.67472640     20.79217680    
383   0   7   0.15       5.03982320      17.95582320     24.67472640    
384   0   7   0.15       7.87617680      1.15727360      20.79217680    
385   0   7   0.15       5.03982320      5.03982320      14.07327360    
386   0   7   0.15       20.79217680     20.79217680     14.07327360    
387   0   7   0.15       20.79217680     5.03982320      11.75872640    
388   0   7   0.15       7.87617680      17.95582320     14.07327360    
389   0   7   0.15       5.03982320      11.75872640     5.03982320     
390   0   7   0.15       20.79217680     1.15727360      17.95582320    
391   0   7   0.15       20.79217680     17.95582320     1.15727360     
392   0   7   0.15       20.79217680     11.75872640     5.03982320     
393   0   7   0.15       20.79217680     14.07327360     20.79217680    
394   0   7   0.15       17.95582320     11.75872640     17.95582320    
395   0   7   0.15       14.07327360     17.95582320     17.95582320    
396   0   7   0.15       7.87617680      20.79217680     1.15727360     
397   0   7   0.15       17.95582320     5.03982320      1.15727360     
398   0   7   0.15       14.07327360     20.79217680     5.03982320     
399   0   7   0.15       17.95582320     14.07327360     7.87617680     
400   0   7   0.15       7.87617680      11.75872640     7.87617680     
401   0   7   0.15       14.07327360     5.03982320      20.79217680    
402   0   7   0.15       11.75872640     5.03982320      5.03982320     
403   0   7   0.15       11.75872640     20.79217680     20.79217680    
404   0   7   0.15       20.79217680     7.87617680      24.67472640    
405   0   7   0.15       5.03982320      7.87617680      1.15727360     