LAMMPS (7 Feb 2024 - Update 1)
OMP_NUM_THREADS environment is not set. Defaulting to 1 thread. (src/comm.cpp:98)
  using 1 OpenMP thread(s) per MPI task
Reading data file ...
  triclinic box = (0 0 0) to (25.832 25.832 25.832) with tilt (0 0 0)
  2 by 2 by 7 MPI processor grid
  reading atoms ...
  424 atoms
  scanning bonds ...
  4 = max bonds/atom
  scanning angles ...
  3 = max angles/atom
  scanning dihedrals ...
  6 = max dihedrals/atom
  scanning impropers ...
  2 = max impropers/atom
  reading bonds ...
  512 bonds
  reading angles ...
  576 angles
  reading dihedrals ...
  768 dihedrals
  reading impropers ...
  192 impropers
Finding 1-2 1-3 1-4 neighbors ...
  special bond factors lj:    1e-100   1e-100   0.999999999
  special bond factors coul:  1e-100   1e-100   0.999999999
     4 = max # of 1-2 neighbors
    12 = max # of 1-3 neighbors
    24 = max # of 1-4 neighbors
    22 = max # of special neighbors
  special bonds CPU = 0.001 seconds
  read_data CPU = 0.017 seconds
System init for delete_bonds ...
Ewald initialization ...
  using 12-bit tables for long-range coulomb (src/kspace.cpp:342)
  G vector (1/distance) = 0.26556282
  estimated absolute RMS force accuracy = 0.00044312468
  estimated relative force accuracy = 1.3344568e-06
  KSpace vectors: actual max1d max3d = 709 7 1687
                  kxmax kymax kzmax  = 7 7 7
Generated 21 of 21 mixed pair_coeff terms from arithmetic mixing rule
Neighbor list info ...
  update: every = 1 steps, delay = 0 steps, check = yes
  max neighbors/atom: 2000, page size: 100000
  master list distance cutoff = 14
  ghost atom cutoff = 14
  binsize = 7, bins = 4 4 4
  1 neighbor lists, perpetual/occasional/extra = 1 0 0
  (1) pair lj/cut/coul/long, perpetual
      attributes: half, newton on
      pair build: half/bin/newton/tri
      stencil: half/bin/3d/tri
      bin: standard
Deleting bonds ...
  384 total bonds, 384 turned on, 0 turned off
  576 total angles, 576 turned on, 0 turned off
  768 total dihedrals, 768 turned on, 0 turned off
  192 total impropers, 192 turned on, 0 turned off
Finding 1-2 1-3 1-4 neighbors ...
  special bond factors lj:    1e-100   1e-100   0.999999999
  special bond factors coul:  1e-100   1e-100   0.999999999
     3 = max # of 1-2 neighbors
     6 = max # of 1-3 neighbors
    10 = max # of 1-4 neighbors
    22 = max # of special neighbors
  special bonds CPU = 0.000 seconds
Ewald initialization ...
  using 12-bit tables for long-range coulomb (src/kspace.cpp:342)
  G vector (1/distance) = 0.26556282
  estimated absolute RMS force accuracy = 0.00044312468
  estimated relative force accuracy = 1.3344568e-06
  KSpace vectors: actual max1d max3d = 709 7 1687
                  kxmax kymax kzmax  = 7 7 7
Generated 21 of 21 mixed pair_coeff terms from arithmetic mixing rule
Setting up hftn style minimization ...
  Unit style    : real
  Current step  : 0
WARNING: Inconsistent image flags (src/domain.cpp:814)
Per MPI rank memory allocation (min/avg/max) = 25.49 | 25.67 | 26.14 Mbytes
   Step         TotEng         Volume         Press           Temp          Cella          Cellb          Cellc           Pxx            Pyy            Pzz            Pxy            Pxz            Pyz      
         0  -8366.6059      17237.493     -1225.8152      0              25.832         25.832         25.832        -1225.8152     -1225.8152     -1225.8152     -5.7373958e-12  1.4498018e-11  2.3041118e-11
        38  -8604.0954      17237.493      2825.5245      0              25.832         25.832         25.832         2825.6953      2825.2938      2825.5844     -0.030593728   -0.010708685    0.04475805   
Loop time of 0.51418 on 28 procs for 37 steps with 424 atoms

96.2% CPU use with 28 MPI tasks x 1 OpenMP threads

Minimization stats:
  Stopping criterion = trust region too small
  Energy initial, next-to-last, final = 
     -8366.60592459389   -8604.0954249022   -8604.0954249022
  Force two-norm initial, final = 774.64436 0.053224365
  Force max component initial, final = 39.728129 0.010077664
  Final line search alpha, max atom move = 0 0
  Iterations, force evaluations = 37 948

MPI task timing breakdown:
Section |  min time  |  avg time  |  max time  |%varavg| %total
---------------------------------------------------------------
Pair    | 0.01385    | 0.029057   | 0.0832     |  11.7 |  5.65
Bond    | 0.00063262 | 0.0030554  | 0.0086205  |   4.4 |  0.59
Kspace  | 0.27436    | 0.28727    | 0.31143    |   1.6 | 55.87
Neigh   | 0          | 0          | 0          |   0.0 |  0.00
Comm    | 0.092584   | 0.16831    | 0.19274    |   6.0 | 32.73
Output  | 0          | 0          | 0          |   0.0 |  0.00
Modify  | 0          | 0          | 0          |   0.0 |  0.00
Other   |            | 0.02649    |            |       |  5.15

Nlocal:        15.1429 ave          31 max           8 min
Histogram: 20 0 0 0 0 0 0 0 0 8
Nghost:        1215.71 ave        1355 max        1084 min
Histogram: 12 0 0 0 0 0 8 0 0 8
Neighs:        1963.14 ave        4035 max        1025 min
Histogram: 20 0 0 0 0 0 0 0 0 8

Total # of neighbors = 54968
Ave neighs/atom = 129.64151
Ave special neighs/atom = 7.8113208
Neighbor list builds = 0
Dangerous builds = 0
Minimization 1 done
Ewald initialization ...
  using 12-bit tables for long-range coulomb (src/kspace.cpp:342)
  G vector (1/distance) = 0.26556282
  estimated absolute RMS force accuracy = 0.00044312468
  estimated relative force accuracy = 1.3344568e-06
  KSpace vectors: actual max1d max3d = 709 7 1687
                  kxmax kymax kzmax  = 7 7 7
Generated 21 of 21 mixed pair_coeff terms from arithmetic mixing rule
Setting up cg style minimization ...
  Unit style    : real
  Current step  : 38
WARNING: Energy due to 6 extra global DOFs will be included in minimizer energies
 (src/min.cpp:219)
WARNING: Inconsistent image flags (src/domain.cpp:814)
Per MPI rank memory allocation (min/avg/max) = 23.99 | 24.17 | 24.64 Mbytes
   Step         TotEng         Volume         Press           Temp          Cella          Cellb          Cellc           Pxx            Pyy            Pzz            Pxy            Pxz            Pyz      
        38  -8604.0954      17237.493      2825.5245      0              25.832         25.832         25.832         2825.6953      2825.2938      2825.5844     -0.030593728   -0.010708685    0.04475805   
       100  -8607.9665      17399.483      60.517073      0              25.912179      25.913387      25.912435      70.371478      45.987229      65.192511     -0.0033998574  -0.0012184519   0.0051622496 
       197  -8609.4855      17485.638      30.35624       0              25.956142      25.95421       25.955747      15.424326      52.669489      22.974904     -8.7938515     -12.03877       1.8069039    
Loop time of 0.104425 on 28 procs for 159 steps with 424 atoms

95.4% CPU use with 28 MPI tasks x 1 OpenMP threads

Minimization stats:
  Stopping criterion = linesearch alpha is zero
  Energy initial, next-to-last, final = 
      -8604.0954249022  -8609.48187129825  -8609.48187129825
  Force two-norm initial, final = 1229.8608 15.831718
  Force max component initial, final = 710.10339 13.114199
  Final line search alpha, max atom move = 2.9088298e-11 3.8146973e-10
  Iterations, force evaluations = 159 213

MPI task timing breakdown:
Section |  min time  |  avg time  |  max time  |%varavg| %total
---------------------------------------------------------------
Pair    | 0.0036649  | 0.0066729  | 0.016145   |   5.1 |  6.39
Bond    | 0.00017006 | 0.00072531 | 0.0016682  |   0.0 |  0.69
Kspace  | 0.046613   | 0.05016    | 0.052269   |   0.5 | 48.03
Neigh   | 0          | 0          | 0          |   0.0 |  0.00
Comm    | 0.018702   | 0.027082   | 0.031167   |   2.7 | 25.93
Output  | 2.5388e-05 | 2.6317e-05 | 2.9776e-05 |   0.0 |  0.03
Modify  | 0          | 0          | 0          |   0.0 |  0.00
Other   |            | 0.01976    |            |       | 18.92

Nlocal:        15.1429 ave          31 max           8 min
Histogram: 20 0 0 0 0 0 0 0 0 8
Nghost:        1215.71 ave        1355 max        1084 min
Histogram: 12 0 0 0 0 0 8 0 0 8
Neighs:        1963.14 ave        4035 max        1025 min
Histogram: 20 0 0 0 0 0 0 0 0 8

Total # of neighbors = 54968
Ave neighs/atom = 129.64151
Ave special neighs/atom = 7.8113208
Neighbor list builds = 0
Dangerous builds = 0
Minimization 2 done
Ewald initialization ...
  using 12-bit tables for long-range coulomb (src/kspace.cpp:342)
  G vector (1/distance) = 0.26546937
  estimated absolute RMS force accuracy = 0.00046080023
  estimated relative force accuracy = 1.3876862e-06
  KSpace vectors: actual max1d max3d = 709 7 1687
                  kxmax kymax kzmax  = 7 7 7
Generated 21 of 21 mixed pair_coeff terms from arithmetic mixing rule
Setting up Verlet run ...
  Unit style    : real
  Current step  : 0
  Time step     : 0.5
WARNING: Inconsistent image flags (src/domain.cpp:814)
Per MPI rank memory allocation (min/avg/max) = 22.88 | 23.06 | 23.54 Mbytes
   Step          Temp          KinEng         PotEng         Press          Volume         Cella          Cellb          Cellc        CellAlpha       CellBeta      CellGamma   
         0   258            325.30772     -8609.4857      880.79144      17485.638      25.956142      25.95421       25.955747      90.000344      89.997521      89.998202    
     10000   258.90645      326.45065     -8284.105       890.35368      17056.769      25.746951      25.806015      25.689794      90.571548      91.436123      88.467586    
     20000   266.96853      336.61599     -8293.0209     -275.35538      17263.056      25.725122      25.830254      25.981461      90.571292      90.209747      89.660956    
     30000   277.46507      349.85089     -8287.0452      1526.5747      17142.508      25.75277       25.74336       25.867894      91.356503      89.208003      90.456528    
     40000   278.68472      351.38872     -8282.7261     -528.87166      17205.762      25.766824      25.916165      25.768754      89.796228      89.425473      90.631647    
     50000   264.76267      333.83466     -8301.3448      179.7177       17134.955      25.715242      25.808234      25.857039      89.869891      92.63781       88.343661    
     60000   257.73775      324.97705     -8294.7515     -1781.4523      17166.537      25.802262      25.769041      25.826501      89.273527      88.749929      89.887642    
     70000   261.50447      329.72645     -8287.5283      1076.1427      16998.691      25.663995      25.904991      25.59555       91.86782       89.985666      88.153788    
     80000   253.77051      319.97484     -8276.5329      770.37523      17123.46       25.773865      25.736825      25.820842      89.266817      90.434634      90.999204    
     90000   261.04927      329.1525      -8259.5072     -598.02358      17210.625      25.929001      25.788859      25.740581      89.361001      90.406945      90.162996    
    100000   249.58167      314.6932      -8293.1172     -123.70482      17322.613      25.858289      25.820352      25.960498      91.426545      91.297094      90.453708    
Loop time of 44.2385 on 28 procs for 100000 steps with 424 atoms

Performance: 97.652 ns/day, 0.246 hours/ns, 2260.473 timesteps/s, 958.441 katom-step/s
94.5% CPU use with 28 MPI tasks x 1 OpenMP threads

MPI task timing breakdown:
Section |  min time  |  avg time  |  max time  |%varavg| %total
---------------------------------------------------------------
Pair    | 1.1653     | 2.104      | 3.8752     |  75.7 |  4.76
Bond    | 0.14901    | 0.34982    | 0.72956    |  38.1 |  0.79
Kspace  | 21.273     | 22.642     | 25.386     |  23.9 | 51.18
Neigh   | 0.32852    | 0.33458    | 0.34267    |   0.7 |  0.76
Comm    | 8.8217     | 13.426     | 15.625     |  59.6 | 30.35
Output  | 0.00025212 | 0.00026323 | 0.00034455 |   0.0 |  0.00
Modify  | 4.1803     | 4.5839     | 5.0492     |  12.8 | 10.36
Other   |            | 0.7974     |            |       |  1.80

Nlocal:        15.1429 ave          28 max           7 min
Histogram: 8 4 8 0 0 0 0 0 0 8
Nghost:        1243.25 ave        1400 max        1112 min
Histogram: 12 0 0 0 0 8 0 0 0 8
Neighs:        1966.57 ave        3635 max         903 min
Histogram: 8 4 8 0 0 0 0 0 0 8

Total # of neighbors = 55064
Ave neighs/atom = 129.86792
Ave special neighs/atom = 7.8113208
Neighbor list builds = 912
Dangerous builds = 0
Ewald initialization ...
  using 12-bit tables for long-range coulomb (src/kspace.cpp:342)
  G vector (1/distance) = 0.26553062
  estimated absolute RMS force accuracy = 0.0004492809
  estimated relative force accuracy = 1.3529961e-06
  KSpace vectors: actual max1d max3d = 706 7 1687
                  kxmax kymax kzmax  = 6 7 7
Generated 21 of 21 mixed pair_coeff terms from arithmetic mixing rule
Setting up Verlet run ...
  Unit style    : real
  Current step  : 0
  Time step     : 0.5
WARNING: Inconsistent image flags (src/domain.cpp:814)
Per MPI rank memory allocation (min/avg/max) = 23.27 | 23.46 | 23.92 Mbytes
   Step          Temp          KinEng         PotEng         Press          Volume         Cella          Cellb          Cellc        CellAlpha       CellBeta      CellGamma   
         0   249.58167      314.6932      -8293.1172     -123.70199      17322.613      25.858289      25.820352      25.960498      91.426545      91.297094      90.453708    
     10000   262.17887      330.57679     -8278.8827     -532.74819      17236.341      25.740726      25.866981      25.887163      90.248047      89.856451      90.087296    
     20000   252.69971      318.62469     -8285.7538      989.41611      17033.449      25.792679      25.680123      25.731611      89.68384       91.913542      90.380588    
     30000   259.39003      327.06039     -8262.8968      79.917304      17182.702      25.859853      25.862868      25.706436      90.751335      88.293147      89.43231     
     40000   247.91593      312.5929      -8267.8965      1719.7689      17163.118      25.830861      25.820299      25.738865      89.29415       90.894491      90.347       
     50000   258.01742      325.32969     -8296.4581      1283.1477      17101.312      25.705997      25.876904      25.71016       89.560459      89.682138      90.197729    
     60000   254.31262      320.65837     -8284.314       1527.4142      17054.743      25.858514      25.731459      25.636739      89.31791       89.227627      90.472162    
     70000   250.65391      316.04516     -8293.9925      222.76869      17087.846      25.733877      25.800931      25.751503      88.216658      90.760423      90.353709    
     80000   242.1726       305.35123     -8287.583      -429.08637      17368.522      25.913711      25.886142      25.899637      89.513461      89.683163      91.259884    
     90000   265.07962      334.23429     -8287.1266     -1261.8944      17140.522      25.863037      25.857647      25.67582       90.185533      92.878799      91.804057    
    100000   262.90998      331.49863     -8271.7671      468.18562      17261.953      25.86995       25.752393      25.911494      90.223687      90.248141      90.353748    
    110000   267.55959      337.36124     -8281.6379      1585.4228      17022.156      25.707616      25.772113      25.701102      91.225024      89.608471      89.234858    
    120000   269.26918      339.51683     -8286.4884      115.04591      17220.858      25.857781      25.897602      25.72066       89.645775      89.16671       89.393877    
    130000   259.9487       327.76481     -8269.096      -1119.3344      17078.176      25.644135      25.873383      25.759969      91.198048      88.066153      90.244052    
    140000   269.70234      340.063       -8287.87        1318.7731      17055.366      25.637435      25.761459      25.832227      88.767197      90.756368      90.352181    
    150000   268.40435      338.42639     -8280.7554      64.520872      17034.106      25.720426      25.759123      25.730034      90.52652       90.480387      92.112829    
    160000   262.0585       330.42501     -8274.1777      633.6169       17125.552      25.765687      25.747841      25.852206      87.98356       92.26316       89.433589    
    170000   274.42362      346.01598     -8271.8621     -2355.9708      17318.834      25.954959      25.83173       25.843312      90.186225      88.642546      91.098052    
    180000   245.01778      308.93866     -8272.379      -740.60389      17305.945      25.831041      25.836784      25.946543      91.426129      91.397338      90.078135    
    190000   248.48652      313.31234     -8284.0394      133.6766       17093.358      25.865794      25.641165      25.809395      93.029413      89.684986      90.056586    
    200000   255.64339      322.33631     -8278.9651     -1610.2471      17238.054      25.852351      25.757119      25.898243      89.781262      91.583613      89.611556    
Loop time of 86.4686 on 28 procs for 200000 steps with 424 atoms

Performance: 99.921 ns/day, 0.240 hours/ns, 2312.978 timesteps/s, 980.703 katom-step/s
94.7% CPU use with 28 MPI tasks x 1 OpenMP threads

MPI task timing breakdown:
Section |  min time  |  avg time  |  max time  |%varavg| %total
---------------------------------------------------------------
Pair    | 2.3044     | 4.2444     | 7.8484     | 107.4 |  4.91
Bond    | 0.29547    | 0.7099     | 1.4876     |  54.0 |  0.82
Kspace  | 40.281     | 42.881     | 49.166     |  32.1 | 49.59
Neigh   | 0.65364    | 0.66517    | 0.68074    |   0.9 |  0.77
Comm    | 17.184     | 27.061     | 31.395     |  79.7 | 31.30
Output  | 0.0014082  | 0.0018611  | 0.0024987  |   0.7 |  0.00
Modify  | 8.3396     | 9.3155     | 10.306     |  19.6 | 10.77
Other   |            | 1.59       |            |       |  1.84

Nlocal:        15.1429 ave          32 max           8 min
Histogram: 16 3 1 0 0 0 0 1 3 4
Nghost:        1239.61 ave        1391 max        1109 min
Histogram: 12 0 0 0 0 4 4 0 0 8
Neighs:        1967.57 ave        4162 max        1021 min
Histogram: 16 3 1 0 0 0 0 1 3 4

Total # of neighbors = 55092
Ave neighs/atom = 129.93396
Ave special neighs/atom = 7.8113208
Neighbor list builds = 1789
Dangerous builds = 0
Final averaged cell parameters:
  cella = 25.8030819148744
  cellb = 25.8016389632626
  cellc = 25.7954103957816
  alpha = 90.1043227785733
  beta  = 90.3040357179351
  gamma = 90.3218050075587
Total wall time: 0:02:11
