ITEM: TIMESTEP
25000
ITEM: NUMBER OF ATOMS
3648
ITEM: BOX BOUNDS xy xz yz pp pp pp
-2.4436060397074622e-01 4.1702417440704714e+01 -5.6397875682054018e-02
-2.9760449932042254e-01 4.1582822398353187e+01 1.1365471241691183e-01
-1.9884453853203610e-01 4.1599644538531180e+01 -1.1558210096691243e-01
ITEM: ATOMS id type xs ys zs
291 8 0.196021 0.205825 0.0497065
301 8 0.049236 0.0506165 0.047292
412 3 0.212897 0.215778 0.0374131
413 3 0.0354565 0.0371597 0.0349354
337 4 0.000562533 0.0481605 0.0899785
449 1 0.00136835 0.00480825 0.0585788
17 7 0.0898509 0.13337 0.0031929
365 4 0.00110552 0.0871814 0.0523821
448 1 0.24786 0.19159 0.00274607
724 9 0.107949 0.18266 0.000842493
665 9 0.0643616 0.134747 0.00749808
380 4 0.16127 0.204572 0.00315241
76 7 0.113458 0.157397 0.000258735
332 4 0.200487 0.167046 0.00159017
120 5 0.171229 0.175741 0.00193129
321 4 0.0480455 0.0853161 0.00396329
393 4 0.453536 0.00404029 0.0904671
2189 4 0.496891 0.0876125 0.0453861
253 9 0.482316 0.14399 0.0698709
197 9 0.358 0.0164225 0.0715514
364 4 0.252994 0.172438 0.0545693
132 5 0.257231 0.180372 0.0834497
192 6 0.258006 0.154453 0.107408
48 7 0.255021 0.161747 0.140184
252 9 0.259625 0.114126 0.0724531
231 9 0.251371 0.0739335 0.109493
352 4 0.259466 0.209727 0.092406
60 7 0.256929 0.122355 0.0978207
39 7 0.254865 0.0980324 0.119649
1866 7 0.486321 0.155514 0.117896
286 9 0.434749 0.240526 0.104129
196 9 0.38959 0.240175 0.0660364
1965 5 0.498771 0.0779802 0.0745727
417 2 0.476711 0.023495 0.020871
424 2 0.271225 0.229736 0.0227104
83 7 0.343459 0.00989646 0.120918
275 9 0.318951 0.00737805 0.114109
148 6 0.352775 0.247148 0.0997255
234 9 0.48017 0.180393 0.111263
437 1 0.436993 0.00427731 0.000655017
113 5 0.427092 0.0841918 0.00140413
105 5 0.425102 0.00642474 0.081587
373 4 0.414786 0.0551674 0.00161768
309 4 0.41618 0.00500876 0.0522512
2273 1 0.497602 0.00267544 0.0578212
94 7 0.410445 0.241614 0.112572
4 7 0.384336 0.242985 0.0901301
149 6 0.399149 0.0105515 0.106875
1885 7 0.488793 0.132991 0.0935343
328 4 0.297437 0.168305 0.000115098
89 7 0.407853 0.0112482 0.14006
2001 6 0.495976 0.100528 0.101899
5 7 0.365569 0.0132431 0.0967878
1857 7 0.499626 0.0910689 0.134215
333 4 0.455841 0.0924662 0.00281433
272 9 0.390277 0.190023 0.000117001
8 7 0.114484 0.261965 0.0984164
274 9 0.065696 0.266 0.117787
82 7 0.0908047 0.262824 0.121993
152 6 0.147409 0.259535 0.10515
92 7 0.155339 0.260213 0.137597
224 9 0.174853 0.387636 0.0263513
361 4 0.00243409 0.417111 0.0489448
269 9 0.133074 0.4331 0.025833
264 9 0.104072 0.316946 0.00831831
129 5 0.00179094 0.427627 0.077614
36 7 0.241179 0.345616 0.13522
336 4 0.196344 0.336732 0.00981586
376 4 0.159439 0.298956 0.0029534
444 1 0.245708 0.313589 0.00135927
200 9 0.106004 0.264719 0.0741717
440 1 0.18742 0.252135 0.00206924
997 7 0.0919653 0.485784 0.131833
1301 4 0.0452861 0.498275 0.084627
77 7 0.1272 0.407595 0.0220592
277 9 0.066535 0.484742 0.137977
287 9 0.181924 0.495416 0.10263
1057 6 0.100018 0.489538 0.0985503
1021 5 0.073758 0.494523 0.0742713
144 5 0.241544 0.329794 0.0764945
452 1 0.248952 0.252517 0.0605417
193 9 0.137749 0.491035 0.0622959
312 4 0.162423 0.260283 0.0506942
213 9 0.0598442 0.361589 0.013845
368 4 0.239473 0.340835 0.0484594
381 4 0.0827163 0.451082 0.00783629
1007 7 0.156554 0.491737 0.111427
340 4 0.245929 0.300846 0.0864822
396 4 0.201949 0.254304 0.0880145
108 5 0.172842 0.258278 0.0796654
121 5 0.0731533 0.421606 0.00970837
45 7 0.00169469 0.413302 0.136639
32 7 0.149505 0.382843 0.022105
913 7 0.131992 0.48911 0.0879497
235 9 0.233219 0.43528 0.108738
176 6 0.141031 0.350809 0.0165707
189 6 0.00120608 0.402533 0.103368
180 6 0.238235 0.354499 0.103122
165 6 0.0962656 0.397742 0.0164971
421 2 0.019164 0.481278 0.0184915
420 2 0.224312 0.273974 0.0251013
43 7 0.233003 0.409358 0.11696
64 7 0.230216 0.385674 0.0947844
256 9 0.224668 0.392673 0.0699739
1217 4 0.0826607 0.494505 0.0451271
116 5 0.167751 0.327156 0.00940429
72 7 0.108788 0.341451 0.0129036
21 7 0.0851675 0.365411 0.0139824
325 4 0.0442191 0.413885 0.00537105
228 9 0.244963 0.320072 0.140526
112 5 0.32653 0.251398 0.0746471
392 4 0.298418 0.2546 0.086742
88 7 0.346164 0.25033 0.132719
292 8 0.29365 0.298443 0.0542992
409 3 0.467894 0.46936 0.0339877
308 4 0.334499 0.252222 0.0453592
302 8 0.454826 0.455806 0.0472611
416 3 0.283505 0.289204 0.0353174
22 7 0.091872 0.122089 0.259046
31 7 0.156936 0.139222 0.258618
71 7 0.114987 0.0982437 0.256793
78 7 0.133389 0.163059 0.259867
115 5 0.171958 0.0798481 0.252972
122 5 0.079728 0.178931 0.259385
166 6 0.103734 0.153431 0.261966
175 6 0.148277 0.105883 0.25634
214 9 0.0666944 0.117269 0.258287
223 9 0.182116 0.145145 0.260444
263 9 0.108309 0.0737482 0.256225
270 9 0.139938 0.187916 0.259801
296 8 0.0493569 0.205703 0.205243
299 8 0.201182 0.0532099 0.203711
326 4 0.0520577 0.167629 0.254353
335 4 0.201336 0.0888259 0.250526
375 4 0.161555 0.0513285 0.251961
382 4 0.0871415 0.209299 0.260007
402 3 0.0346827 0.216467 0.217935
407 3 0.214716 0.0368836 0.214599
419 2 0.227595 0.0225737 0.271897
422 2 0.0202477 0.229623 0.274164
439 1 0.188006 0.00304494 0.249385
99 5 0.326926 0.00938026 0.179071
281 9 0.433037 0.0110546 0.147106
410 3 0.463056 0.217477 0.281781
1958 5 0.497819 0.171931 0.174416
443 1 0.252419 0.0592023 0.250555
243 9 0.253558 0.142466 0.186597
355 4 0.251693 0.0887941 0.204031
51 7 0.25508 0.13693 0.162291
183 6 0.257662 0.104651 0.152187
139 5 0.254924 0.0779118 0.175545
343 4 0.255575 0.0489809 0.165342
15 7 0.385151 0.0120084 0.163344
19 7 0.343198 0.131193 0.236684
26 7 0.408006 0.115807 0.232015
67 7 0.38599 0.0901262 0.231955
74 7 0.36572 0.155544 0.238466
118 5 0.422896 0.173311 0.242965
127 5 0.329545 0.0721191 0.243846
163 6 0.353574 0.0985917 0.237384
170 6 0.398237 0.147541 0.238456
211 9 0.318427 0.136765 0.232846
218 9 0.432954 0.111448 0.226681
259 9 0.393259 0.0651458 0.227766
266 9 0.358394 0.180054 0.241893
323 4 0.299942 0.0824106 0.244549
330 4 0.45262 0.164905 0.242184
371 4 0.340136 0.0436316 0.248186
378 4 0.412046 0.202087 0.246842
426 2 0.479918 0.228635 0.228079
431 2 0.273806 0.0198496 0.230153
387 4 0.298615 0.00997319 0.16806
2010 6 0.493081 0.146987 0.149063
10 7 0.368837 0.249033 0.155309
398 4 0.455497 0.241829 0.161122
102 5 0.426247 0.244394 0.17033
154 6 0.400859 0.243196 0.146048
159 6 0.352644 0.0121316 0.153868
207 9 0.39256 0.0128626 0.188368
319 4 0.335344 0.0056834 0.206564
2170 4 0.499391 0.200807 0.164098
455 1 0.251248 0.00035614 0.190223
314 4 0.416193 0.247336 0.197641
1878 7 0.499412 0.115185 0.157389
240 9 0.253738 0.185661 0.149377
1227 4 0.162361 0.495688 0.197511
318 4 0.0844758 0.257336 0.209306
14 7 0.133457 0.261375 0.161046
284 9 0.178396 0.258307 0.145456
158 6 0.100761 0.261134 0.154518
55 7 0.242559 0.370333 0.15913
411 3 0.211153 0.468341 0.283088
434 1 0.0569393 0.253832 0.255379
203 9 0.112209 0.482777 0.178822
1067 6 0.148488 0.489035 0.143831
386 4 0.0455803 0.257166 0.17124
50 7 0.00114741 0.390248 0.160101
206 9 0.137971 0.260278 0.18631
98 5 0.0750677 0.258881 0.180586
18 7 0.0877423 0.383106 0.249761
27 7 0.153255 0.368481 0.259836
66 7 0.130319 0.343706 0.261125
75 7 0.111878 0.407215 0.247708
119 5 0.169093 0.426609 0.249571
126 5 0.0729878 0.327237 0.253551
162 6 0.097805 0.35146 0.254456
171 6 0.145609 0.400173 0.251676
210 9 0.0626408 0.390024 0.248944
219 9 0.17849 0.362408 0.261952
258 9 0.135389 0.318584 0.267443
267 9 0.104579 0.432471 0.241967
322 4 0.0446418 0.337459 0.249862
331 4 0.198122 0.416921 0.250944
370 4 0.0832891 0.299368 0.256621
379 4 0.159879 0.455746 0.24727
427 2 0.225898 0.481945 0.226415
430 2 0.0202202 0.27464 0.23364
187 6 0.237816 0.401545 0.150022
135 5 0.243934 0.428665 0.172302
347 4 0.243344 0.456785 0.160923
242 9 0.00111933 0.397127 0.184821
923 7 0.115716 0.485164 0.152911
359 4 0.248994 0.418922 0.201812
1015 5 0.172317 0.492133 0.168797
447 1 0.245987 0.443296 0.247499
1311 4 0.202258 0.490922 0.160323
454 1 0.000549841 0.252447 0.195403
237 9 0.00187497 0.438039 0.144266
297 8 0.296498 0.45268 0.201293
70 7 0.367345 0.341515 0.262069
202 9 0.362041 0.254657 0.179917
114 5 0.426207 0.328471 0.250618
79 7 0.376107 0.405951 0.251363
23 7 0.340415 0.363008 0.261929
167 6 0.344606 0.394845 0.255731
215 9 0.316043 0.352766 0.264753
423 2 0.266851 0.480709 0.267535
30 7 0.402636 0.384629 0.24767
403 3 0.283215 0.467239 0.212471
262 9 0.363548 0.317729 0.268156
406 3 0.467027 0.282173 0.210252
247 9 0.250602 0.367503 0.183888
334 4 0.454807 0.338117 0.247691
438 1 0.441269 0.250765 0.248395
271 9 0.380099 0.431679 0.249004
383 4 0.327913 0.447323 0.253589
123 5 0.317356 0.418118 0.253097
327 4 0.288025 0.411195 0.250738
374 4 0.417909 0.300268 0.25105
222 9 0.424883 0.394848 0.239374
293 8 0.453937 0.29452 0.196484
418 2 0.4795 0.27404 0.269321
174 6 0.398225 0.35179 0.253206
280 9 0.322007 0.254803 0.143055
56 7 0.242747 0.118423 0.404645
227 9 0.240353 0.07007 0.386117
35 7 0.24309 0.0945544 0.381153
188 6 0.245779 0.150655 0.395609
179 6 0.247254 0.103493 0.348936
143 5 0.249689 0.0772993 0.323914
63 7 0.248252 0.135783 0.339891
229 9 0.00931968 0.0692986 0.357377
49 7 0.0100575 0.132731 0.40848
151 6 0.149808 0.0056292 0.355465
97 5 0.073381 0.00192952 0.42648
91 7 0.156913 0.00137615 0.388766
107 5 0.175203 0.00649191 0.330639
157 6 0.0995271 0.00313854 0.402907
44 7 0.248227 0.159742 0.363289
236 9 0.246604 0.184983 0.355314
348 4 0.249288 0.206333 0.411155
2 7 0.125324 0.249936 0.347277
194 9 0.128627 0.247122 0.322817
288 9 0.174637 0.246443 0.360182
7 7 0.116715 0.00840015 0.347019
199 9 0.110594 0.0107131 0.322806
181 6 0.00838865 0.100383 0.399378
137 5 0.00477386 0.0750802 0.4233
311 4 0.165696 0.00778277 0.302385
37 7 0.00629806 0.0938232 0.365541
395 4 0.205171 0.00517647 0.340176
46 7 0.00824195 0.157993 0.385489
385 4 0.0445576 0.00265078 0.417561
81 7 0.0936443 0.00801241 0.37058
58 7 0.00325227 0.11817 0.343005
190 6 0.00271135 0.149715 0.352896
273 9 0.0695086 0.0121609 0.365087
250 9 0.00256933 0.111209 0.317498
367 4 0.247989 0.0854919 0.295021
451 1 0.248778 0.00108228 0.309509
341 4 0.00152449 0.045635 0.417516
136 5 0.247605 0.177332 0.420523
238 9 0.0110862 0.182983 0.391911
283 9 0.182203 0.00131829 0.395687
339 4 0.253199 0.0490331 0.334879
255 9 0.251568 0.140975 0.313118
294 8 0.448157 0.206475 0.29582
300 8 0.299724 0.0486747 0.298552
415 3 0.285094 0.034749 0.28584
390 4 0.038126 0.250966 0.344951
146 6 0.0922398 0.253981 0.357606
156 6 0.144403 0.251967 0.400718
110 5 0.0663909 0.252126 0.334199
96 7 0.150214 0.250105 0.367742
104 5 0.170803 0.251217 0.423615
2078 9 0.00117162 0.384493 0.318719
244 9 0.24292 0.390449 0.427995
414 3 0.0280907 0.287226 0.290937
40 7 0.2484 0.34538 0.361011
47 7 0.246935 0.411789 0.380856
191 6 0.248019 0.402376 0.348498
131 5 0.246742 0.427449 0.323188
59 7 0.248923 0.36969 0.33868
344 4 0.246153 0.299167 0.407103
351 4 0.247093 0.456659 0.331955
140 5 0.246349 0.328161 0.416486
86 7 0.0870641 0.255403 0.390377
278 9 0.0627838 0.257247 0.399989
12 7 0.113431 0.257151 0.411571
400 4 0.199205 0.250296 0.413108
306 4 0.0761333 0.251342 0.305529
298 8 0.197165 0.456786 0.297242
295 8 0.0399398 0.303275 0.302889
363 4 0.245945 0.418246 0.294266
52 7 0.244199 0.387421 0.403129
184 6 0.24538 0.355311 0.392558
1111 9 0.105355 0.491036 0.317457
919 7 0.113341 0.497422 0.340301
1185 9 0.0647088 0.494739 0.359232
993 7 0.0896979 0.498053 0.364628
1886 7 0.489182 0.385302 0.340122
1219 4 0.330838 0.493457 0.297917
100 5 0.321326 0.255473 0.418699
279 9 0.315449 0.491686 0.395396
1023 5 0.323625 0.493853 0.328253
1858 7 0.494131 0.344905 0.381645
2169 4 0.487649 0.456459 0.414711
1877 7 0.492699 0.367814 0.405298
388 4 0.292867 0.252648 0.408513
226 9 0.494617 0.319955 0.387904
282 9 0.429462 0.259443 0.392375
2162 4 0.492286 0.300629 0.334504
84 7 0.339441 0.252534 0.363581
2009 6 0.491175 0.40048 0.396641
239 9 0.250776 0.437079 0.384389
150 6 0.397542 0.25516 0.351052
254 9 0.485442 0.390161 0.314675
16 7 0.379806 0.259209 0.406684
1065 6 0.396506 0.498223 0.399585
1865 7 0.488881 0.408969 0.363915
1059 6 0.348396 0.493075 0.355767
1957 5 0.493111 0.426397 0.421167
2002 6 0.491864 0.354367 0.349855
1966 5 0.494075 0.329446 0.32521
2190 4 0.497787 0.338456 0.295815
233 9 0.485258 0.435307 0.358864
394 4 0.451423 0.257074 0.336239
160 6 0.347436 0.255711 0.395704
198 9 0.361442 0.251995 0.316082
1303 4 0.293743 0.494922 0.336746
6 7 0.364298 0.25265 0.341976
90 7 0.404654 0.258471 0.383348
251 9 0.250395 0.366504 0.312382
276 9 0.314227 0.25123 0.354417
232 9 0.251905 0.321217 0.353894
921 7 0.3637 0.497389 0.410388
999 7 0.339533 0.493431 0.388619
2274 1 0.499122 0.251739 0.307482
106 5 0.423102 0.254905 0.324959
915 7 0.379914 0.49785 0.345548
310 4 0.415461 0.251283 0.296084
195 9 0.385852 0.498375 0.321217
1005 7 0.404546 0.49993 0.36732
209 9 0.0683365 0.138603 0.482471
220 9 0.182952 0.110296 0.499314
257 9 0.139124 0.0686502 0.504034
268 9 0.108875 0.181109 0.487291
428 2 0.224851 0.232371 0.478326
429 2 0.0175068 0.0225117 0.47946
473 7 0.0927688 0.132306 0.489412
484 7 0.158163 0.116583 0.499679
521 7 0.13372 0.0933466 0.501265
532 7 0.115304 0.157092 0.49154
576 5 0.175372 0.172114 0.498435
581 5 0.0737803 0.0759894 0.499972
617 6 0.101655 0.101059 0.497368
628 6 0.149319 0.148241 0.497533
747 8 0.203606 0.202696 0.543507
757 8 0.0417011 0.0533665 0.54843
777 4 0.0446826 0.084174 0.501231
788 4 0.204537 0.165031 0.50204
825 4 0.0838868 0.0475648 0.502452
836 4 0.166242 0.201129 0.495699
868 3 0.216272 0.217879 0.532773
869 3 0.0293489 0.0369378 0.537086
360 4 0.247464 0.16835 0.450258
904 1 0.248561 0.194075 0.497869
820 4 0.245984 0.166819 0.545225
761 4 0.0815718 0.00156945 0.549042
317 4 0.0844447 0.000188945 0.455114
889 1 0.0562199 0.00269676 0.502622
768 4 0.166408 0.247966 0.547881
241 9 0.0131784 0.141031 0.433091
353 4 0.0063957 0.0862188 0.451773
1561 9 0.13309 0.00374832 0.565743
248 9 0.241756 0.112829 0.429861
656 9 0.111609 0.244566 0.571291
2277 1 0.496096 0.00247878 0.443318
290 8 0.292836 0.201778 0.444657
303 8 0.45015 0.0502541 0.45297
404 3 0.282541 0.218434 0.45954
405 3 0.462256 0.0357885 0.465668
480 7 0.334028 0.116652 0.495046
485 7 0.399414 0.131393 0.503151
525 7 0.356087 0.0921313 0.498293
536 7 0.377568 0.155951 0.501613
569 5 0.414851 0.0742765 0.50228
580 5 0.322118 0.174862 0.494625
624 6 0.34547 0.148145 0.49606
629 6 0.388355 0.0998763 0.500631
672 9 0.308186 0.111677 0.493881
677 9 0.424089 0.13757 0.504527
717 9 0.346653 0.0673582 0.498674
728 9 0.384545 0.182366 0.504947
784 4 0.293081 0.168074 0.497491
789 4 0.442752 0.08417 0.506436
829 4 0.405664 0.0450636 0.498395
840 4 0.331895 0.202832 0.489897
873 2 0.471836 0.0200698 0.52391
880 2 0.272169 0.232421 0.517715
652 9 0.394407 0.245467 0.562742
765 4 0.408888 0.00515245 0.547601
708 9 0.262645 0.1121 0.568757
764 4 0.337383 0.248432 0.539923
2645 4 0.483926 0.0839251 0.552709
2721 1 0.495753 0.0598338 0.504259
653 9 0.356581 0.0185496 0.568403
709 9 0.47535 0.13772 0.569284
1673 4 0.0810536 0.493715 0.548516
316 4 0.162369 0.251766 0.452321
705 9 0.00518362 0.361804 0.568042
896 1 0.189483 0.251625 0.500904
289 8 0.192119 0.298715 0.453768
304 8 0.0412282 0.451722 0.450669
401 3 0.0297373 0.466025 0.465043
408 3 0.211209 0.288263 0.46381
477 7 0.0899759 0.364949 0.496378
488 7 0.154309 0.384456 0.501161
528 7 0.113126 0.34219 0.497418
533 7 0.131308 0.40724 0.500557
572 5 0.170921 0.327523 0.503493
577 5 0.0741228 0.424674 0.499614
621 6 0.0974958 0.399081 0.498071
632 6 0.144869 0.352417 0.501634
669 9 0.0642575 0.358099 0.495277
680 9 0.179081 0.391887 0.502248
720 9 0.108374 0.316587 0.495649
725 9 0.140449 0.431186 0.500757
781 4 0.0444952 0.417223 0.499542
792 4 0.199196 0.338052 0.504152
832 4 0.161843 0.298434 0.504531
837 4 0.0846615 0.451736 0.500451
876 2 0.226816 0.276893 0.51941
877 2 0.016269 0.477946 0.521008
824 4 0.243623 0.338579 0.548809
204 9 0.109364 0.261036 0.436605
456 1 0.245891 0.253763 0.43685
712 9 0.246344 0.392782 0.56938
900 1 0.246356 0.314585 0.497208
356 4 0.247989 0.33673 0.446334
2181 4 0.499904 0.416977 0.449769
828 4 0.331064 0.304179 0.492031
481 7 0.407106 0.36912 0.474582
212 9 0.316275 0.396043 0.476615
780 4 0.292142 0.340252 0.490887
865 3 0.465069 0.461662 0.533643
892 1 0.309148 0.253885 0.493292
320 4 0.331592 0.258838 0.446848
524 7 0.380509 0.346954 0.474873
908 1 0.251208 0.252662 0.556543
748 8 0.296673 0.305107 0.541419
584 5 0.321215 0.332167 0.488134
201 9 0.357962 0.498182 0.435175
476 7 0.341702 0.389042 0.478178
785 4 0.451307 0.412198 0.484982
833 4 0.413826 0.450713 0.492824
217 9 0.432696 0.362288 0.475012
529 7 0.36562 0.410837 0.47792
432 2 0.269268 0.275579 0.473137
872 3 0.283918 0.290293 0.52878
620 6 0.348149 0.356242 0.479001
260 9 0.387157 0.321497 0.472413
425 2 0.476937 0.479054 0.47588
2725 1 0.498387 0.440251 0.49857
625 6 0.398194 0.400334 0.477578
265 9 0.360532 0.436163 0.479009
573 5 0.423344 0.423314 0.485507
758 8 0.45274 0.447281 0.546252
208 9 0.383574 0.260844 0.432379
1677 4 0.414252 0.498256 0.546376
568 5 0.330437 0.252028 0.569799
1565 9 0.361462 0.497003 0.569111
245 9 0.493785 0.359759 0.430122
752 8 0.0482524 0.198189 0.706888
755 8 0.201533 0.0501885 0.698109
699 9 0.242323 0.143942 0.68181
730 9 0.0690298 0.238083 0.612272
538 7 0.0934401 0.243113 0.619612
696 9 0.237079 0.184993 0.642093
811 4 0.247033 0.089253 0.701728
507 7 0.244234 0.137886 0.656442
504 7 0.241352 0.161595 0.633169
648 6 0.248425 0.15075 0.601425
588 5 0.248026 0.176773 0.574848
808 4 0.249602 0.205306 0.584699
911 1 0.247912 0.00497777 0.688668
799 4 0.249099 0.0516569 0.663554
595 5 0.249209 0.0807209 0.672112
1655 9 0.176564 0.00322055 0.60612
464 7 0.117825 0.243602 0.596471
842 4 0.0505735 0.246883 0.666347
564 5 0.175216 0.247422 0.577531
863 3 0.213055 0.0357072 0.71195
910 1 0.00240014 0.24906 0.693325
554 5 0.0792123 0.249081 0.677514
774 4 0.0884848 0.249475 0.706129
608 6 0.150045 0.246252 0.603188
852 4 0.204312 0.24642 0.586833
614 6 0.103097 0.248701 0.651457
457 7 0.128149 0.000508853 0.591716
565 5 0.0721166 0.000341771 0.577289
2505 9 0.00104518 0.065195 0.641796
2526 9 0.00399073 0.105807 0.684312
551 7 0.153582 0.00107023 0.613257
559 5 0.172102 0.00122799 0.669022
855 4 0.200643 0.00565867 0.66053
1645 9 0.0625101 0.00161658 0.641138
510 7 0.00058974 0.113869 0.660559
802 4 0.000404968 0.201897 0.667731
611 6 0.145908 0.00019644 0.645348
601 6 0.0959096 4.90205e-05 0.601724
545 7 0.406522 0.012676 0.633638
471 7 0.384254 0.0111615 0.657905
2322 7 0.482555 0.157276 0.615161
2626 4 0.492322 0.204546 0.664164
555 5 0.327362 0.00863738 0.676227
561 5 0.420118 0.00659454 0.575895
2638 4 0.491573 0.164679 0.702589
495 7 0.25798 0.096386 0.616336
516 7 0.257459 0.120053 0.593183
639 6 0.251364 0.105539 0.647492
687 9 0.263187 0.0718705 0.609434
460 7 0.388171 0.248843 0.586984
550 7 0.410508 0.248999 0.610997
742 9 0.436593 0.245593 0.605518
2466 6 0.485807 0.150298 0.648222
2457 6 0.480795 0.0995792 0.605013
2421 5 0.483887 0.0735035 0.581212
2414 5 0.490512 0.175926 0.673888
849 4 0.448667 0.00301059 0.583941
2313 7 0.482665 0.0932936 0.637461
2334 7 0.484768 0.118432 0.658373
737 9 0.432114 0.0136784 0.636136
690 9 0.480937 0.18104 0.604793
461 7 0.362877 0.0171409 0.594384
2617 4 0.485622 0.0444165 0.590895
539 7 0.34011 0.0185708 0.618238
843 4 0.298622 0.00965582 0.666038
663 9 0.393088 0.00731938 0.682471
2341 7 0.479902 0.130809 0.594048
605 6 0.395335 0.0127428 0.601878
731 9 0.314825 0.0235422 0.612635
615 6 0.350402 0.0146538 0.650562
775 4 0.336723 0.00507593 0.704584
702 9 0.484766 0.111684 0.6836
681 9 0.481001 0.0695151 0.64875
1757 4 0.0451367 0.49771 0.58732
1767 4 0.203271 0.499659 0.666428
659 9 0.110073 0.491213 0.683424
1379 7 0.115907 0.49235 0.657648
743 9 0.181867 0.498856 0.613163
600 5 0.244851 0.328068 0.576807
733 9 0.0666599 0.49461 0.641706
1463 7 0.156768 0.496976 0.617577
1683 4 0.164567 0.497577 0.704377
684 9 0.245222 0.318058 0.6398
662 9 0.143125 0.255983 0.683959
636 6 0.244576 0.3531 0.602699
796 4 0.24666 0.298607 0.583959
548 7 0.158164 0.254058 0.635231
1523 6 0.147642 0.495474 0.650123
492 7 0.245066 0.344445 0.634637
703 9 0.242644 0.359591 0.682667
470 7 0.135614 0.253745 0.65852
643 6 0.245672 0.40032 0.652004
499 7 0.246081 0.408171 0.620051
803 4 0.24758 0.454338 0.667479
591 5 0.248038 0.425572 0.67741
740 9 0.182601 0.259807 0.643669
520 7 0.244855 0.386615 0.595362
691 9 0.246956 0.434333 0.613082
511 7 0.244711 0.367242 0.658372
1471 5 0.173714 0.49706 0.674902
1369 7 0.133183 0.49791 0.594416
1477 5 0.0737619 0.496021 0.5792
686 9 0.0055593 0.316649 0.608563
1513 6 0.100007 0.49557 0.602866
1453 7 0.0918977 0.494564 0.63573
466 7 0.369166 0.256179 0.650839
848 4 0.302775 0.255406 0.581528
770 4 0.417463 0.252483 0.699189
610 6 0.401364 0.251814 0.642253
854 4 0.455794 0.253838 0.659847
544 7 0.346491 0.258397 0.628098
736 9 0.322193 0.261839 0.635226
604 6 0.356535 0.253761 0.596178
658 9 0.363943 0.259799 0.675872
1823 1 0.253208 0.499968 0.692266
558 5 0.427207 0.252785 0.669331
753 8 0.303435 0.453171 0.70658
2634 4 0.499291 0.335804 0.698351
749 8 0.452273 0.29835 0.700794
815 4 0.250988 0.416035 0.706923
2330 7 0.499744 0.383323 0.653552
2522 9 0.496223 0.389297 0.677813
478 7 0.0895737 0.117966 0.754927
487 7 0.15435 0.133453 0.749496
527 7 0.111622 0.0937547 0.756672
534 7 0.131923 0.158376 0.75162
571 5 0.167739 0.0765649 0.753265
578 5 0.0751859 0.17657 0.753463
622 6 0.099945 0.149918 0.752322
631 6 0.144486 0.10149 0.753318
670 9 0.064646 0.114103 0.755709
679 9 0.17817 0.139774 0.746057
719 9 0.101818 0.0691397 0.759771
726 9 0.139565 0.183202 0.750863
782 4 0.046814 0.165388 0.749897
791 4 0.195596 0.0862143 0.755379
831 4 0.158952 0.0472977 0.750257
838 4 0.0858993 0.204305 0.758148
875 2 0.223033 0.0230871 0.768927
878 2 0.0219184 0.230498 0.772901
458 7 0.124337 0.24975 0.848755
599 5 0.242392 0.0777081 0.827913
858 3 0.0365405 0.214258 0.719273
795 4 0.243077 0.0480901 0.838076
907 1 0.243307 0.00177225 0.80727
566 5 0.0688422 0.249452 0.834339
463 7 0.110116 0.00648229 0.839985
851 4 0.196854 0.0108277 0.829685
607 6 0.142706 0.00640592 0.847606
823 4 0.244166 0.08807 0.799753
899 1 0.246464 0.0620288 0.749641
635 6 0.240235 0.10361 0.851194
519 7 0.233664 0.135799 0.841341
711 9 0.236256 0.140319 0.815102
655 9 0.101872 0.00523937 0.816539
846 4 0.0387437 0.242403 0.840278
767 4 0.158331 0.00341317 0.79338
895 1 0.186692 0.000117999 0.745814
563 5 0.168081 0.0074121 0.821521
729 9 0.062546 0.0138517 0.855751
722 9 0.354624 0.183106 0.755676
475 7 0.340125 0.134538 0.747753
482 7 0.40487 0.117965 0.745175
523 7 0.381007 0.0940987 0.741957
530 7 0.361442 0.158866 0.750958
574 5 0.420766 0.175114 0.751604
583 5 0.32437 0.0772569 0.746453
619 6 0.348625 0.102476 0.743142
626 6 0.394736 0.150289 0.748653
674 9 0.430046 0.112415 0.743957
715 9 0.386939 0.0688081 0.737974
750 8 0.452858 0.203165 0.801925
756 8 0.294203 0.0502637 0.799678
779 4 0.295458 0.0858807 0.742453
786 4 0.449838 0.166457 0.75148
827 4 0.333716 0.0492938 0.752139
834 4 0.410494 0.203471 0.753166
866 3 0.463617 0.216516 0.785211
871 3 0.279824 0.0363073 0.786345
882 2 0.476338 0.228114 0.730309
887 2 0.268547 0.0255189 0.730284
667 9 0.314527 0.141013 0.748766
2726 1 0.499809 0.190368 0.749618
891 1 0.305649 0.00231231 0.75023
650 9 0.13362 0.254857 0.825823
762 4 0.0807875 0.257285 0.807207
890 1 0.0611834 0.253944 0.754972
647 6 0.249159 0.402372 0.856596
474 7 0.0912158 0.387666 0.747579
483 7 0.156814 0.369777 0.745124
522 7 0.132737 0.347103 0.744152
531 7 0.115135 0.410168 0.750422
575 5 0.1735 0.426424 0.750673
582 5 0.0736494 0.330176 0.748555
618 6 0.0992537 0.35563 0.747198
627 6 0.148575 0.401592 0.750754
666 9 0.0657232 0.395429 0.747038
675 9 0.181855 0.363184 0.743495
714 9 0.138828 0.322054 0.740984
723 9 0.107619 0.435517 0.752368
751 8 0.0454259 0.300311 0.805448
754 8 0.201891 0.45287 0.798808
778 4 0.0458181 0.339937 0.744484
787 4 0.20132 0.415035 0.753113
826 4 0.0842423 0.30228 0.753072
835 4 0.16494 0.45551 0.74877
867 3 0.214506 0.466004 0.783644
870 3 0.0342696 0.287884 0.788802
883 2 0.230985 0.48197 0.731469
886 2 0.0219677 0.272059 0.730666
819 4 0.2458 0.418103 0.803511
515 7 0.249805 0.370639 0.846202
587 5 0.249669 0.427798 0.831451
794 4 0.00249671 0.300196 0.835061
2722 1 0.497612 0.311688 0.750268
678 9 0.431736 0.390179 0.749895
862 3 0.463362 0.285683 0.71602
623 6 0.352519 0.399717 0.754454
486 7 0.406155 0.384013 0.752192
606 6 0.395768 0.258845 0.852058
2342 7 0.491158 0.385545 0.842395
718 9 0.357113 0.319211 0.754457
570 5 0.422335 0.326418 0.751198
859 3 0.289034 0.467729 0.717324
671 9 0.315137 0.363094 0.756242
790 4 0.450289 0.338475 0.748425
579 5 0.328288 0.42736 0.75616
727 9 0.393646 0.43256 0.74948
2730 1 0.497511 0.251521 0.810634
707 9 0.252125 0.364275 0.821472
903 1 0.250988 0.442955 0.75352
2422 5 0.491779 0.326895 0.827047
839 4 0.337435 0.455364 0.754911
462 7 0.36434 0.255282 0.842218
766 4 0.410137 0.252398 0.798571
562 5 0.42052 0.253852 0.827792
850 4 0.448294 0.25158 0.837053
894 1 0.438477 0.250674 0.751481
630 6 0.396873 0.351765 0.752014
654 9 0.358768 0.251849 0.81726
479 7 0.341019 0.367564 0.754631
2458 6 0.489811 0.353236 0.852409
830 4 0.412909 0.298363 0.753616
535 7 0.38489 0.408792 0.751894
807 4 0.253278 0.455968 0.840781
879 2 0.272525 0.482514 0.77454
783 4 0.30015 0.415939 0.758186
874 2 0.4762 0.272655 0.772547
526 7 0.36354 0.344757 0.753684
2618 4 0.494239 0.298616 0.834936
710 9 0.488622 0.391944 0.818308
2646 4 0.490553 0.337875 0.798934
732 9 0.313884 0.253136 0.856497
884 2 0.223245 0.22837 0.979123
885 2 0.0225952 0.0228317 0.979622
856 4 0.195955 0.246837 0.916902
542 7 0.0846228 0.24625 0.890301
560 5 0.167258 0.245442 0.928746
537 7 0.0878553 0.00868548 0.863514
512 7 0.240814 0.1189 0.905799
644 6 0.234217 0.149607 0.898469
491 7 0.244559 0.0956692 0.882351
500 7 0.230157 0.158088 0.865919
613 6 0.0976456 0.00603628 0.895565
694 9 0.000837323 0.184505 0.891031
553 5 0.0724928 0.00472593 0.921744
505 7 0.000498234 0.135386 0.908611
744 9 0.17402 0.24366 0.864594
552 7 0.148933 0.245538 0.871463
468 7 0.109477 0.244265 0.912638
612 6 0.141776 0.242458 0.904219
660 9 0.103796 0.245761 0.937508
734 9 0.0592436 0.246962 0.898042
469 7 0.130715 0.00618435 0.901942
172 6 0.146575 0.150277 0.99851
28 7 0.156121 0.116948 0.997083
602 6 0.092668 0.248819 0.859248
547 7 0.153871 0.00668342 0.878805
713 9 0.139438 0.0686631 0.994967
161 6 0.0998547 0.10118 0.999003
369 4 0.0846314 0.0459384 0.997438
676 9 0.18065 0.109041 0.99761
65 7 0.133305 0.0935987 0.996568
739 9 0.178006 0.00720124 0.885168
661 9 0.136854 0.00907261 0.92823
773 4 0.0833298 0.00390511 0.950855
816 4 0.238508 0.166236 0.951813
704 9 0.244011 0.114665 0.929636
683 9 0.248019 0.0710389 0.889106
592 5 0.235808 0.175583 0.923877
804 4 0.236636 0.204855 0.914767
841 4 0.0437393 0.00477439 0.913285
772 4 0.158258 0.246107 0.958347
697 9 0.00216653 0.144225 0.932494
125 5 0.0753068 0.0745912 0.999808
692 9 0.225811 0.183654 0.860069
173 6 0.401721 0.108515 0.999029
746 8 0.293011 0.200589 0.955322
759 8 0.448672 0.0535429 0.951032
860 3 0.278754 0.214648 0.966989
861 3 0.462124 0.0390714 0.963308
29 7 0.408975 0.142218 0.998569
216 9 0.321004 0.113474 0.994606
80 7 0.385224 0.164439 0.997707
384 4 0.335354 0.206523 0.998328
168 6 0.352497 0.15442 0.996778
69 7 0.36994 0.0996464 0.996634
124 5 0.326002 0.17777 0.998239
261 9 0.365403 0.0742998 0.997663
24 7 0.345249 0.121738 0.99536
221 9 0.433522 0.147738 0.997587
1573 9 0.138481 0.499606 0.931923
1685 4 0.0848751 0.498864 0.949798
490 7 0.00649904 0.347072 0.883463
688 9 0.246643 0.3215 0.857288
509 7 0.00547432 0.371693 0.90645
812 4 0.249648 0.337335 0.953641
2525 9 0.0124056 0.367636 0.930709
745 8 0.197473 0.300055 0.952185
760 8 0.0487969 0.455973 0.95129
857 3 0.0327328 0.467525 0.962394
864 3 0.21179 0.286635 0.965419
2506 9 0.0175471 0.324951 0.889407
496 7 0.249808 0.344968 0.866728
912 1 0.245482 0.251673 0.938965
700 9 0.262185 0.388113 0.933903
695 9 0.255338 0.433991 0.8969
682 9 0.498332 0.319969 0.893016
716 9 0.391794 0.323119 0.990818
117 5 0.420726 0.428388 0.995327
372 4 0.334474 0.299118 0.996102
2333 7 0.49998 0.370467 0.905864
888 2 0.266226 0.275093 0.977215
776 4 0.333105 0.253509 0.950793
503 7 0.253601 0.40894 0.888618
128 5 0.325038 0.328447 0.995663
324 4 0.296335 0.337958 0.997169
2314 7 0.495978 0.345138 0.885637
2321 7 0.495038 0.410058 0.865195
472 7 0.379838 0.262851 0.906332
738 9 0.427821 0.26481 0.892234
673 9 0.43047 0.36362 0.98845
668 9 0.31614 0.395036 0.994961
436 1 0.307619 0.25357 0.999614
546 7 0.403389 0.262798 0.883697
20 7 0.34129 0.386772 0.995081
164 6 0.350525 0.354947 0.994165
169 6 0.395216 0.40352 0.992487
73 7 0.363022 0.411775 0.99508
68 7 0.383319 0.347687 0.990619
377 4 0.412824 0.457091 0.998548
800 4 0.251598 0.300075 0.91308
329 4 0.449129 0.417608 0.994353
25 7 0.405294 0.372189 0.989929
721 9 0.35507 0.436999 0.993682
664 9 0.386785 0.263857 0.931772
508 7 0.256516 0.384689 0.910127
640 6 0.252813 0.353439 0.899554
556 5 0.322278 0.25378 0.92229
616 6 0.347368 0.258572 0.89751
881 2 0.480489 0.479434 0.977058
596 5 0.251288 0.328206 0.924423
540 7 0.33877 0.255692 0.865258
844 4 0.293876 0.251454 0.912433
689 9 0.491407 0.435357 0.859066
1203 8 0.204467 0.702497 0.0467236
1213 8 0.049907 0.548711 0.0495159
1324 3 0.216614 0.71609 0.0319004
1325 3 0.0373252 0.538922 0.0339526
1249 4 0.00112025 0.550755 0.084026
1345 1 0.059501 0.500872 1.8508e-05
1277 4 0.00174102 0.588924 0.0452558
1053 5 0.000339258 0.579952 0.0746463
1361 1 0.00107034 0.503846 0.0582942
1164 9 0.256366 0.612118 0.0619514
1143 9 0.253697 0.569734 0.102391
951 7 0.256045 0.594542 0.111082
972 7 0.256935 0.618333 0.087816
917 7 0.371987 0.5124 0.0946627
1061 6 0.405399 0.511614 0.105298
1305 4 0.459795 0.505428 0.0896229
1221 4 0.421307 0.507789 0.0502814
1109 9 0.368277 0.511888 0.0686519
1017 5 0.430811 0.508369 0.0796424
1187 9 0.322315 0.510468 0.109616