LAMMPS data file via write_data, version 7 Feb 2024, timestep = 50000, units = real

3648 atoms
9 atom types
4736 bonds
9 bond types
7296 angles
12 angle types
7680 dihedrals
10 dihedral types
1664 impropers
4 improper types

-0.1646028145001992 41.56540281450037 xlo xhi
-0.2395803615933545 41.640380361592406 ylo yhi
-0.19511136407690088 41.59591136407593 zlo zhi
-0.044768248959939264 0.08604692998309854 0.05525206557137357 xy xz yz

Masses

1 91.224
2 15.9994
3 15.9994
4 15.9994
5 12.0107
6 12.0107
7 12.0107
8 1.00784
9 1.00784

Atoms # full

291 0 8 0.497 8.322367190895822 7.871572410749081 1.689104835616135 0 0 0
301 0 8 0.497 1.9110840453565232 1.712535273603601 1.7358242784694102 0 0 0
412 0 3 -1.037 8.79501443969598 8.469153652402762 1.1048902393844249 0 0 0
413 0 3 -1.037 1.3101722132639997 1.2176563595992722 1.1406833967399652 0 0 0
361 0 4 -0.6825 -0.032558397733288474 17.028485461460914 1.836381951860548 0 0 0
352 0 4 -0.6825 10.31517484558013 7.90386253587131 3.1647000218236 0 0 0
364 0 4 -0.6825 10.645136805824231 6.4305677808310735 1.5779692603130484 0 0 0
132 0 5 0.764 10.48496527874631 6.721630549895398 2.7613376754360193 0 0 0
192 0 6 -0.135 10.457125768372267 5.738429531902096 3.896846414722847 0 0 0
277 0 9 0.152 2.637547221621854 20.17095282773536 5.685028042798712 0 0 0
1061 0 6 -0.135 16.522279573956745 20.623503941108567 4.1299035643048985 0 0 0
2269 0 1 2.37 20.45131640610644 18.16984698965213 -0.11962894911389758 0 0 0
193 0 9 0.152 5.771079473663404 19.885677311655417 2.647105153081092 0 0 0
997 0 7 -0.106 3.665183552203801 20.15715021704124 5.369137739278181 0 0 0
2185 0 4 -0.6825 20.664555857591633 17.122986932893024 1.865802939489134 0 0 0
995 0 7 -0.106 14.231469206543792 20.33049208027107 4.849085951541142 0 0 0
234 0 9 0.152 20.181391300372557 7.449070932257241 4.313472666047189 0 0 0
249 0 9 0.152 0.32581461427104635 14.669854114233166 2.6827321245865368 0 0 0
287 0 9 0.152 7.434380586058722 19.93366033581325 4.350338028439545 0 0 0
116 0 5 0.764 6.832238879234201 13.240906535945014 0.020502284221489586 0 0 0
224 0 9 0.152 7.33674002086046 15.862741829121887 0.1600785885140743 0 0 0
1109 0 9 0.152 14.93816862116626 20.136279970167582 2.662416878343991 0 0 0
336 0 4 -0.6825 8.036919087146138 13.614362558869155 0.2604116511654759 0 0 0
225 0 9 0.152 20.706591153259957 2.625449678446751 5.3994968399696415 0 0 0
1866 0 7 -0.106 20.266940363560813 6.376653627753109 4.557530710495473 0 0 0
231 0 9 0.152 10.41647652263322 2.330756356875648 4.212443394396994 0 0 0
252 0 9 0.152 10.319330037899029 4.066241417873552 2.5655893138970027 0 0 0
60 0 7 -0.106 10.423975686070065 4.3663315997299765 3.570758612272496 0 0 0
39 0 7 -0.106 10.423411658134965 3.3897856854327357 4.5951987920440835 0 0 0
48 0 7 -0.106 10.438528385641533 6.117261367230449 5.239337671633114 0 0 0
149 0 6 -0.135 16.375021632857756 -0.06837162083580609 4.024300974480383 0 0 0
32 0 7 -0.106 6.240737391949421 15.598867602560095 0.11677226391939227 0 0 0
417 0 2 -1.083 19.560495201594797 0.5949662845690052 0.669300800097022 0 0 0
424 0 2 -1.083 11.207146895041202 9.26812656241754 0.6318025911114455 0 0 0
88 0 7 -0.106 14.057229393019348 10.132757665599335 5.425964930781166 0 0 0
148 0 6 -0.135 14.403871337645697 10.094064915424346 4.078028347612796 0 0 0
112 0 5 0.764 13.341111137080064 10.17775609918079 3.0441028881215257 0 0 0
392 0 4 -0.6825 12.133333162938778 10.152086265775036 3.445879296317849 0 0 0
308 0 4 -0.6825 13.740457646112377 10.254200012341038 1.810914665288848 0 0 0
2189 0 4 -0.6825 20.574379107255158 3.433424287107537 1.6224170462451626 0 0 0
917 0 7 -0.106 15.168588741876471 20.32353491010716 3.796237920969797 0 0 0
420 0 2 -1.083 9.121861701317176 10.92172840303815 0.7070588452705182 0 0 0
261 0 9 0.152 14.568169963667081 2.600075545083805 -0.007736488603506703 0 0 0
253 0 9 0.152 20.093765620856253 5.760078962305779 2.4537586006141594 0 0 0
38 0 7 -0.106 0.19863385378631077 14.010475028531571 4.685906806840987 0 0 0
189 0 6 -0.135 -0.14841335509603718 16.367215868210625 4.057400757517392 0 0 0
1187 0 9 0.152 13.195485333587904 20.053588802907868 4.566106536748708 0 0 0
5 0 7 -0.106 15.06653875753961 0.14261230520857737 3.7112817049272904 0 0 0
280 0 9 0.152 13.013889001067785 10.139980912359771 5.65600786809535 0 0 0
286 0 9 0.152 17.756375444094626 10.132366668666531 4.486422961529089 0 0 0
94 0 7 -0.106 16.725546723250513 10.154606860827288 4.805076553452106 0 0 0
4 0 7 -0.106 15.796595209598449 10.153243191830523 3.7961250309811883 0 0 0
196 0 9 0.152 16.23008778858973 10.155397069899687 2.7920515099655514 0 0 0
1953 0 5 0.764 20.65285681757937 17.576688960164763 3.012347151278966 0 0 0
269 0 9 0.152 5.627010023203764 17.730620918744208 0.25416314387759864 0 0 0
152 0 6 -0.135 5.89754168531542 10.049107278350526 4.065485930158473 0 0 0
409 0 3 -1.037 19.065136833401283 19.135404283044537 1.3547408918028085 0 0 0
108 0 5 0.764 6.937272562906552 10.02344485377385 2.9866034693172616 0 0 0
368 0 4 -0.6825 10.02677207674127 13.454727594475084 1.958378334344454 0 0 0
230 0 9 0.152 0.3304395795068182 13.072269153198448 4.2184042703607165 0 0 0
1885 0 7 -0.106 20.292553237969457 5.403354980268109 3.5280427346389667 0 0 0
1 0 7 -0.106 5.209745960548198 -0.18779714091955801 3.765904502830039 0 0 0
83 0 7 -0.106 14.09133881779442 0.08159938920687893 4.6996842962381145 0 0 0
1199 0 9 0.152 7.298880239891524 -0.15123497979270578 4.429931094352195 0 1 0
292 0 8 0.497 12.247005667556483 11.97104957020505 1.657003885095643 0 0 0
302 0 8 0.497 18.49258486233129 18.612419036287605 1.9839722716154835 0 0 0
95 0 7 -0.106 6.217716580253869 -0.12495787454036454 4.725425378014308 0 0 0
2173 0 4 -0.6825 20.59876948792427 18.744361471262927 3.439845452788639 0 0 0
668 0 9 0.152 12.727154727823619 16.265111954850312 0.3419951829832384 0 0 1
1857 0 7 -0.106 20.619705389816673 3.6434281167037037 5.21258027945945 0 0 0
2001 0 6 -0.135 20.497189471295957 4.051999935708772 3.8755336065502153 0 0 0
1965 0 5 0.764 20.561754989092297 3.039765757906017 2.8107357286675225 0 0 0
2161 0 4 -0.6825 20.60257060687425 1.8578882201453757 3.292414169673771 0 0 0
416 0 3 -1.037 11.44581056047933 11.607620193010751 1.2807742545305763 0 0 0
256 0 9 0.152 9.545510140460681 15.770971071017605 2.690641033791328 0 0 0
274 0 9 0.152 2.6051093209400835 10.191957512703217 4.384565907397 0 0 0
200 0 9 0.152 4.35822629012033 10.115456803846621 2.696684780316919 0 0 0
82 0 7 -0.106 3.6177670681340808 10.150210002850004 4.737987071059443 0 0 0
1057 0 6 -0.135 4.0955848779048605 20.19457860552916 4.045037485004744 0 0 0
1021 0 5 0.764 2.9707160564619444 20.291611362368492 3.0254192398581115 0 0 0
57 0 7 -0.106 0.13759207839265036 15.007348850449834 3.7395906460238355 0 0 0
165 0 6 -0.135 3.9493508182027046 16.401916475520775 -0.09137464118618642 0 0 0
197 0 9 0.152 14.85744059988558 0.3780264252860589 2.687303976261477 0 0 0
275 0 9 0.152 13.026398925179913 0.22925012321509186 4.53457789521725 0 0 0
176 0 6 -0.135 5.789748464553416 14.248653328061373 0.03069519891243394 0 0 0
3185 0 1 2.37 20.62298610297329 20.684328027054786 2.264512800946096 0 0 0
444 0 1 2.37 9.982846132694444 12.696203343274789 -0.13935982975962516 0 0 0
1217 0 4 -0.6825 3.348507978116711 20.320227312616506 1.8366220277532364 0 0 0
105 0 5 0.764 17.430937127986443 -0.17067811360556545 2.9259856334074597 0 0 0
77 0 7 -0.106 5.336639709572068 16.673357824773227 0.13204423949750171 0 0 0
169 0 6 -0.135 16.17786369885667 16.571371335417105 -0.07434911280320237 0 0 0
240 0 9 0.152 10.354679487527012 7.176439752448693 5.45323645091339 0 0 0
8 0 7 -0.106 4.602856542017047 10.09465271220317 3.7272847607183786 0 0 0
235 0 9 0.152 9.522680461929331 17.61968749766165 4.242056064357084 0 0 0
20 0 7 -0.106 13.769278977763987 15.971356411557402 0.09513392002075394 0 0 0
452 0 1 2.37 10.114079157278203 9.993549477171904 2.286421875542071 0 0 0
1301 0 4 -0.6825 1.7796096349279868 20.335612694033532 3.344938526246611 0 0 0
312 0 4 -0.6825 6.509762622514829 10.01731705540335 1.744445617188799 0 0 0
144 0 5 0.764 9.916171491025935 13.097612451160698 3.1911633709566725 0 0 0
36 0 7 -0.106 9.998176374669729 13.99876526495843 5.5180805091063 0 0 0
340 0 4 -0.6825 9.805447281534798 11.893756938187163 3.5373882806061276 0 0 0
1007 0 7 -0.106 6.407744477790215 20.003753527862443 4.67252013793374 0 0 0
64 0 7 -0.106 9.690952515097344 15.533045517944544 3.743104506111773 0 0 0
43 0 7 -0.106 9.668860413885408 16.597636635992824 4.621426090417436 0 0 0
92 0 7 -0.106 6.307885294918669 10.13154004781666 5.451837712403938 0 0 0
180 0 6 -0.135 9.879379271900872 14.242946049095652 4.116924805311026 0 0 0
913 0 7 -0.106 5.412860017587695 20.054040110088973 3.6764340169528507 0 0 0
396 0 4 -0.6825 8.157998506353026 9.976965522536178 3.3940955253690537 0 0 0
17 0 7 -0.106 3.8408854522872593 5.23113240132558 -0.1820856412813267 0 0 0
421 0 2 -1.083 0.5607821337844031 19.812476356395717 0.7767945719047857 0 0 0
1017 0 5 0.764 17.47963473668953 20.661149949593707 3.0333429474606 0 0 0
309 0 4 -0.6825 17.08509024271378 -0.11600270066241582 1.7353761532613114 0 0 0
1221 0 4 -0.6825 17.057629591084233 20.597754022736424 1.8477215792123052 0 0 0
1349 0 1 2.37 18.107767964422745 20.69507001433782 -0.029498163207626216 0 0 0
85 0 7 -0.106 3.479112554127353 -0.1542064156221275 5.4976564685076665 0 0 0
665 0 9 0.152 2.8457399961279557 5.544272314458414 0.08245918600012903 0 0 1
21 0 7 -0.106 3.5240961577972154 15.037522138095175 -0.12360495955001574 0 0 0
377 0 4 -0.6825 16.78354947324313 18.789620505904296 0.010683111130740303 0 0 0
724 0 9 0.152 4.639509501350862 7.29106964851165 0.028505988170351437 0 0 1
721 0 9 0.152 14.429645178368892 17.93042567562451 0.24247382388552535 0 0 1
1345 0 1 2.37 2.281877185411776 20.584295080173785 -0.07177603234063373 0 0 0
73 0 7 -0.106 14.768556978073503 16.921354043182827 0.10936092156520477 0 0 0
324 0 4 -0.6825 11.969836381264043 13.874321965874856 -0.13310325270601178 0 0 0
117 0 5 0.764 17.205348234935432 17.614187690644275 -0.11447642937484508 0 0 0
72 0 7 -0.106 4.451847336019106 13.95868010787227 -0.07966737017388838 0 0 0
128 0 5 0.764 13.160508423110398 13.538233014652375 -0.15109343813501228 0 0 0
164 0 6 -0.135 14.19255223875244 14.634295539029054 -0.18249413448990703 0 0 0
264 0 9 0.152 4.1886877696494365 12.878921406135273 -0.08719051237634583 0 0 0
372 0 4 -0.6825 13.630472606109027 12.366152214764433 -0.15379555725918037 0 0 0
216 0 9 0.152 12.91218609100809 4.424175971168959 -0.15279469938555143 0 0 0
381 0 4 -0.6825 3.407143861515321 18.675742318381854 -0.19258493213416908 0 0 0
22 0 7 -0.106 3.49424267323751 4.431854873553151 10.70320264823749 0 0 0
31 0 7 -0.106 6.139073487717939 5.140767975588385 10.485199256931546 0 0 0
71 0 7 -0.106 4.468162233030986 3.4844198863035967 10.678825179018514 0 0 0
78 0 7 -0.106 5.159790609658489 6.134930307773765 10.57406720909017 0 0 0
115 0 5 0.764 6.865102756638685 2.744715082053302 10.621547409736296 0 0 0
122 0 5 0.764 2.8207087256310377 6.805717692040949 10.322557505388263 0 0 0
166 0 6 -0.135 3.8533545539428973 5.788910498844697 10.619469190281272 0 0 0
175 0 6 -0.135 5.800973228684412 3.775254095334547 10.6137620143685 0 0 0
214 0 9 0.152 2.4694720172424565 4.157885816471341 10.76181719874221 0 0 0
223 0 9 0.152 7.145403879462902 5.493212491753809 10.292484473316904 0 0 0
263 0 9 0.152 4.301265182963247 2.4327251942968076 10.701655167103528 0 0 0
270 0 9 0.152 5.534321674338327 7.119686700611199 10.508386491703128 0 0 0
296 0 8 0.497 1.6570075510671312 8.054735096146734 8.266221675706381 0 0 0
299 0 8 0.497 8.212845370645974 1.814469196446205 8.346949248729974 0 0 0
326 0 4 -0.6825 1.6236286047177217 6.414890629310384 10.150113502165654 0 0 0
335 0 4 -0.6825 8.100278679785163 3.1223529806208083 10.669981635957944 0 0 0
375 0 4 -0.6825 6.496662418995561 1.5716224324375359 10.557810829428997 0 0 0
382 0 4 -0.6825 3.3060832773168034 7.987021399697962 10.28464872482089 0 0 0
402 0 3 -1.037 1.2427480199421008 8.726529570990952 8.793409243034015 0 0 0
407 0 3 -1.037 8.70883791309045 1.1494243167923772 8.893630504609519 0 0 0
419 0 2 -1.083 9.208469946400943 0.582697805254971 11.205238222718792 0 0 0
422 0 2 -1.083 0.6427153476647511 9.165695508132746 11.065877369369108 0 0 0
159 0 6 -0.135 14.421757496318806 -0.21099063314979685 6.006877994655653 0 0 0
343 0 4 -0.6825 10.131718442197961 1.6578431416230968 6.65672202181451 0 0 0
443 0 1 2.37 10.11420987931171 2.182179121501256 10.361261436161946 0 0 0
139 0 5 0.764 10.271694879550447 2.8455971366218913 7.065060875513877 0 0 0
183 0 6 -0.135 10.389698631685324 3.813526179950961 5.947635330158674 0 0 0
442 0 1 2.37 -0.04451134203247449 12.737050596274488 10.236544167457804 0 0 0
1299 0 4 -0.6825 12.415696225577449 20.64209192988652 6.963427187806017 0 0 0
354 0 4 -0.6825 -0.019200429030127808 13.838473605886666 8.287377071092266 0 0 0
243 0 9 0.152 10.391345354893582 5.440338719468731 7.22444136166807 0 0 0
51 0 7 -0.106 10.478720562451418 5.155190135367456 6.244291477870976 0 0 0
355 0 4 -0.6825 10.331390910967388 3.2575897272661147 8.299938350712653 0 0 0
19 0 7 -0.106 13.981798514520007 5.299478393766752 10.610902973458938 0 0 0
26 0 7 -0.106 16.676808273396087 4.587829000613995 10.374307153779652 0 0 0
67 0 7 -0.106 15.657405748067104 3.6564426791031432 10.3496989067545 0 0 0
74 0 7 -0.106 14.987424990803461 6.315842034985476 10.486045114416772 0 0 0
118 0 5 0.764 17.39711773082269 6.94746588986658 10.415910200016805 0 0 0
127 0 5 0.764 13.291963692058825 2.923265053859835 10.365552230007626 0 0 0
163 0 6 -0.135 14.327626418749668 3.9935481094813072 10.453745288714371 0 0 0
170 0 6 -0.135 16.32491054219431 5.967622475387216 10.424860851856437 0 0 0
211 0 9 0.152 12.939450261098308 5.542772328581326 10.794315864850772 0 0 0
218 0 9 0.152 17.693591378908387 4.327336990681758 10.309584869698076 0 0 0
259 0 9 0.152 15.917115304937415 2.6205673512032863 10.29295918786306 0 0 0
266 0 9 0.152 14.656234764524815 7.348455021397703 10.488135141271567 0 0 0
323 0 4 -0.6825 12.110080209626451 3.326254897280011 10.502177901454626 0 0 0
330 0 4 -0.6825 18.573674402225603 6.520914929226199 10.42819386453077 0 0 0
371 0 4 -0.6825 13.674177845513002 1.7189787925970403 10.14526467291625 0 0 0
378 0 4 -0.6825 17.060839001515337 8.151073956482687 10.35806803697412 0 0 0
426 0 2 -1.083 19.59990080993195 9.290652670575087 9.386500662276415 0 0 0
431 0 2 -1.083 11.112851576066877 0.6575484155495852 9.419533019982746 0 0 0
10 0 7 -0.106 14.98897967503692 10.168002149687423 6.450534746555499 0 0 0
202 0 9 0.152 14.549029151653203 10.231746975877561 7.4216178418515355 0 0 0
342 0 4 -0.6825 0.3327718832891597 12.201142354697572 6.734540926085339 0 0 0
1958 0 5 0.764 20.473136145407427 6.980403208810266 6.957106640234988 0 0 0
2010 0 6 -0.135 20.364752018795542 5.97092164107559 5.892415333318026 0 0 0
138 0 5 0.764 0.12310735752233887 13.398471957349141 7.1079580387908585 0 0 0
314 0 4 -0.6825 17.126484914276435 10.335847635231707 8.368461391543606 0 0 0
102 0 5 0.764 17.480070982050773 10.179349755215817 7.150631800384829 0 0 0
398 0 4 -0.6825 18.682099582622023 10.055835942309036 6.689440014610157 0 0 0
1311 0 4 -0.6825 8.325898457590357 20.498630691410302 6.743224891334995 0 0 0
411 0 3 -1.037 8.729714429978872 19.262922348405144 11.66411005875889 0 0 0
1227 0 4 -0.6825 6.639006531945364 20.504582565604938 8.262550345624971 0 0 0
1878 0 7 -0.106 20.57518400687469 4.586648625374692 6.211171299417586 0 0 0
438 0 1 2.37 18.069678037448174 10.175419062700314 10.373196100297674 0 0 0
182 0 6 -0.135 0.05305633658145764 14.387132790429499 6.041068973523589 0 0 0
454 0 1 2.37 -0.12643989455307608 10.263955964864268 7.748486103811729 0 0 0
1962 0 5 0.764 20.63514428896477 13.357126234875603 7.096467566708477 0 0 0
434 0 1 2.37 2.315583427108904 9.98286476372728 10.27122870991471 0 0 0
386 0 4 -0.6825 1.7665053251627136 10.154077997095898 6.590443685117406 0 0 0
318 0 4 -0.6825 3.3676405752464524 10.12080329983228 8.222556981686663 0 0 0
98 0 5 0.764 2.9144248922307843 10.147913744579558 7.072245306971841 0 0 0
1015 0 5 0.764 7.117338983133366 20.41145686912314 7.065316548614507 0 0 0
99 0 5 0.764 13.36371720018248 -0.18830819579526442 7.027650787432915 0 0 0
158 0 6 -0.135 3.9718417486348088 10.144346633177488 6.070076324588224 0 0 0
206 0 9 0.152 5.742808039129467 10.134379376021498 7.4087689053944805 0 0 0
14 0 7 -0.106 5.350362278405986 10.147487477724257 6.384761430913572 0 0 0
18 0 7 -0.106 3.816437893045011 15.708647511068463 10.306720415527387 0 0 0
27 0 7 -0.106 6.481444254233635 15.078369393956775 9.880433582397332 0 0 0
66 0 7 -0.106 5.490145385900382 14.075062007276747 9.813789827873338 0 0 0
75 0 7 -0.106 4.7261779762357 16.795902545134695 10.336380212482691 0 0 0
119 0 5 0.764 7.125451785823269 17.512038249306286 10.190380321339788 0 0 0
126 0 5 0.764 3.1631403115614587 13.245918626806375 10.084467462391752 0 0 0
162 0 6 -0.135 4.148314612422995 14.38023992511807 10.053101181527056 0 0 0
171 0 6 -0.135 6.078222757634395 16.419530010503255 10.191601202962563 0 0 0
210 0 9 0.152 2.7645588750256533 15.913604320877557 10.392381561250005 0 0 0
219 0 9 0.152 7.506415088141031 14.914550370977013 9.617547897335355 0 0 0
258 0 9 0.152 5.776934524944381 13.084339356388954 9.443200803832598 0 0 0
267 0 9 0.152 4.35284328226594 17.783673696290183 10.511036283925892 0 0 0
322 0 4 -0.6825 1.9893645379552716 13.680664180027057 10.154873754910914 0 0 0
331 0 4 -0.6825 8.312512569044952 17.13830472714062 10.240250487809213 0 0 0
370 0 4 -0.6825 3.4563909860057045 11.995010943788639 10.052448744321248 0 0 0
379 0 4 -0.6825 6.695852090948451 18.72782145112712 10.150561846851216 0 0 0
427 0 2 -1.083 9.406837276347806 19.875321723669696 9.347403712075579 0 0 0
430 0 2 -1.083 0.861406395534249 11.029593277129669 9.367723472785922 0 0 0
247 0 9 0.152 9.864137968804025 14.718961626347166 7.4711735261554235 0 0 0
55 0 7 -0.106 9.884653448987303 14.993946681786271 6.4606562440099555 0 0 0
187 0 6 -0.135 9.75410591625384 16.32910043830613 6.027902537834081 0 0 0
347 0 4 -0.6825 9.90867302312813 18.70264225443089 6.591905737206613 0 0 0
135 0 5 0.764 9.960665889172697 17.48584599492517 7.01731757269097 0 0 0
359 0 4 -0.6825 10.174853782255374 17.13545500399952 8.235009629726989 0 0 0
447 0 1 2.37 10.229848926535926 18.202357836594217 10.135746268662976 0 0 0
334 0 4 -0.6825 18.61563503460453 13.824732319539947 10.446925819525516 0 0 0
2266 0 1 2.37 20.66147017498362 12.607302991926382 10.352189154324362 0 0 0
79 0 7 -0.106 15.732748772581855 16.717914223579402 10.86677015992262 0 0 0
383 0 4 -0.6825 13.783092854358967 18.64221758049464 10.648713721248164 0 0 0
327 0 4 -0.6825 12.198053217492907 17.14136203576395 10.488839365006102 0 0 0
418 0 2 -1.083 19.737537640121083 11.083481784810415 11.197445181591114 0 0 0
215 0 9 0.152 12.997443378989908 14.659916368412487 10.08212778231185 0 0 0
114 0 5 0.764 17.39824905708076 13.3840145857538 10.416608413514416 0 0 0
297 0 8 0.497 12.381318940513719 18.50924742805734 8.409681758569915 0 0 0
123 0 5 0.764 13.402938715959714 17.42747935226845 10.575458154048711 0 0 0
406 0 3 -1.037 19.190230819745285 11.60117659059996 8.872298171634869 0 0 0
23 0 7 -0.106 14.036365378806536 14.993987483768542 10.395333634772363 0 0 0
403 0 3 -1.037 11.852246855010714 19.131387065118048 8.845759616952487 0 0 0
271 0 9 0.152 15.960797569772524 17.728541212516873 11.250682262279001 0 0 0
167 0 6 -0.135 14.384868707242628 16.375731571851016 10.677354236954681 0 0 0
374 0 4 -0.6825 17.004385421412533 12.166355872095863 10.302392805316446 0 0 0
70 0 7 -0.106 15.067414592661732 14.027804925853511 10.278468982549642 0 0 0
30 0 7 -0.106 16.74847215887439 15.695791940088032 10.747349962281152 0 0 0
262 0 9 0.152 14.723843064382983 13.08102849907151 9.972554812255396 0 0 0
293 0 8 0.497 18.629208871351345 12.25818744660637 8.353683182190228 0 0 0
222 0 9 0.152 17.78847354571638 15.97322841274763 10.943942665740412 0 0 0
174 0 6 -0.135 16.402037657617104 14.37077054109216 10.488586643937747 0 0 0
423 0 2 -1.083 11.103140062869311 19.84999907334684 11.130777851459513 0 0 0
387 0 4 -0.6825 12.14387314798827 0.035902624415658 6.721244398514053 0 0 0
315 0 4 -0.6825 6.575227424425681 -0.1585344341611059 8.29523012928043 0 0 0
399 0 4 -0.6825 8.168120021970966 -0.10376858918485263 6.711255064304023 0 0 0
155 0 6 -0.135 5.886454963787039 -0.12936937070054097 6.059855349510167 0 0 0
1367 0 1 2.37 10.292059880665677 20.649645022190096 7.800151908955868 0 0 0
1067 0 6 -0.135 6.050934293511929 20.120200657581936 5.9744351131046844 0 0 0
103 0 5 0.764 6.961220392049577 -0.1337427271348316 7.142707555675199 0 0 0
1231 0 4 -0.6825 14.014310199779493 20.645037567275505 8.542499916720821 0 0 0
923 0 7 -0.106 4.651658815457187 20.18272134458785 6.368820572612991 0 0 0
2278 0 1 2.37 20.550083240728647 10.18337507052793 7.796617584513949 0 0 0
203 0 9 0.152 4.379017179479966 20.146125310278116 7.4698351299089465 0 0 0
1347 0 1 2.37 12.803876125408888 20.69488215982991 10.372911577439401 0 0 0
2270 0 1 2.37 20.585044207661994 7.639738722376963 10.201285344074734 0 0 0
242 0 9 0.152 -0.04152001591198093 16.08766815680866 7.354826466255372 0 0 0
50 0 7 -0.106 -0.0499672779908366 15.750047058026253 6.362745808430968 0 0 0
1115 0 9 0.152 4.303319282419388 0.09065875120709432 7.495253864406842 0 1 0
1071 0 6 -0.135 14.57776600574671 20.636961369774603 6.203558750883733 0 0 0
2170 0 4 -0.6825 20.601245262516098 8.20675424992965 6.503765272447817 0 0 0
2182 0 4 -0.6825 20.479566524298836 6.579384212959957 8.162701957215626 0 0 0
2166 0 4 -0.6825 20.530442256423488 12.158444203083025 6.650673896225163 0 0 0
154 0 6 -0.135 16.37503246851186 10.154224089404103 6.1533985933439235 0 0 0
11 0 7 -0.106 4.508582028186403 -0.03182048661566475 6.430313238411891 0 0 0
1011 0 5 0.764 13.626529166968975 20.649669157870758 7.337649727074093 0 0 0
455 0 1 2.37 10.177969538706176 -0.19556314989882082 7.787861345277299 0 0 0
2178 0 4 -0.6825 20.682370724599874 13.716362771698765 8.343149228537522 0 0 0
414 0 3 -1.037 1.3256065074507384 11.538887930716902 11.732118528313407 0 0 0
1189 0 9 0.152 2.4168306528543484 -0.19305551693096246 5.883168356812785 0 1 0
284 0 9 0.152 7.361068449763985 10.169831636856943 5.783012579220609 0 0 0
228 0 9 0.152 10.071180488474027 13.036203902584855 5.980141146296833 0 0 0
179 0 6 -0.135 9.934284564176437 3.9180855056828623 14.681930442809305 0 0 0
35 0 7 -0.106 9.759652778735893 3.6160263431838255 16.033055181012234 0 0 0
56 0 7 -0.106 9.826781082350115 4.661578226715479 16.99894385936728 0 0 0
288 0 9 0.152 7.372596088556561 8.976793671319772 15.061345755355866 0 0 0
194 0 9 0.152 5.694534024658633 9.216233204167436 13.200920578506384 0 0 0
227 0 9 0.152 9.57867067813479 2.588226022722488 16.321866392965674 0 0 0
188 0 6 -0.135 9.996923590769144 5.9567070980043155 16.62660008275685 0 0 0
2 0 7 -0.106 5.358995661563238 9.460197290225747 14.198789944727602 0 0 0
96 0 7 -0.106 6.295293548967058 9.405119791758773 15.2006951340555 0 0 0
229 0 9 0.152 0.8375126816392999 2.6683247210946197 14.691891492293864 0 0 0
146 0 6 -0.135 4.044906039990465 9.857338507504519 14.535965850281203 0 0 0
58 0 7 -0.106 0.4633738404130403 4.549232602364538 14.002766451926314 0 0 0
143 0 5 0.764 9.952834040881559 2.820024824201784 13.649054645333724 0 0 0
339 0 4 -0.6825 9.989137005725139 1.580574160131752 13.98851598830016 0 0 0
351 0 4 -0.6825 10.130594347663777 18.448595687540994 13.728051393803256 0 0 0
49 0 7 -0.106 -0.11457099087879032 5.316096794663353 16.656421879184503 0 0 0
250 0 9 0.152 0.6715842252955946 4.2362996510325175 13.025994545717491 0 0 0
273 0 9 0.152 2.877067163454817 0.22734181581213825 15.102825514967032 0 0 0
130 0 5 0.764 -0.017923483036776267 6.88335489607687 13.287144975254655 0 0 0
81 0 7 -0.106 3.9141580566044505 0.05213973465412186 15.34051360551605 0 0 0
190 0 6 -0.135 0.2086815206494172 5.870632506808035 14.330736393721876 0 0 0
151 0 6 -0.135 6.204787034799642 -0.08726993039035752 14.572046305198562 0 0 0
410 0 3 -1.037 19.052471023787856 8.74386148189482 11.799938816028952 0 0 0
2186 0 4 -0.6825 20.47526199178133 6.5787484077012035 12.20033721693715 0 0 0
2165 0 4 -0.6825 20.5651328813068 1.8285364837062685 17.006888294022097 0 0 0
44 0 7 -0.106 10.097032479325522 6.292687824715815 15.232343688761373 0 0 0
63 0 7 -0.106 10.07036078380858 5.227191344905095 14.294505344554393 0 0 0
136 0 5 0.764 10.033132203548877 7.049369225685043 17.594744657342634 0 0 0
348 0 4 -0.6825 10.124076815991295 8.199310012454028 17.11144432660041 0 0 0
367 0 4 -0.6825 10.024371288856406 3.22149148268935 12.45459536349793 0 0 0
255 0 9 0.152 10.251761047393588 5.434594425799152 13.23140958227037 0 0 0
236 0 9 0.152 10.177660158909005 7.310869465485561 14.854899176453278 0 0 0
46 0 7 -0.106 -0.04387784580605451 6.2675365329719135 15.69816078566191 0 0 0
1954 0 5 0.764 20.65929770798094 7.0071251418237575 13.435591663177476 0 0 0
2174 0 4 -0.6825 20.691173354902357 8.177688123891313 13.762415493344998 0 0 0
37 0 7 -0.106 0.4680352966357181 3.5939399717735614 15.00004108417559 0 0 0
40 0 7 -0.106 10.345919036431138 13.925993079818364 14.980758787777125 0 0 0
1117 0 9 0.152 5.609011593049461 20.22534634116135 17.709282575285243 0 0 0
362 0 4 -0.6825 -0.01342073948561981 6.493915467269883 12.105028273824427 0 0 0
915 0 7 -0.106 15.790715306917125 20.622022966122696 14.339165386221865 0 0 0
1219 0 4 -0.6825 13.795823692174984 20.668298335225288 12.389824318309456 0 0 0
294 0 8 0.497 18.461557141666045 8.313681182572882 12.439549154566533 0 0 0
300 0 8 0.497 12.025074763056542 1.665882181522353 12.561735066170508 0 0 0
1005 0 7 -0.106 16.793728172999874 20.669079072217112 15.255861219320979 0 0 0
2274 0 1 2.37 20.693877561550554 10.18908165096581 12.793330829359133 0 0 0
100 0 5 0.764 13.445476925166561 10.607269991759267 17.55096095425508 0 0 0
1886 0 7 -0.106 20.48491281770608 15.668527608995673 14.394184886818529 0 0 0
2002 0 6 -0.135 20.56001029676252 14.326608226546828 14.820298183291381 0 0 0
239 0 9 0.152 10.367495855735712 17.632632040617263 15.819654097930844 0 0 0
90 0 7 -0.106 16.649572827432287 11.032878996669018 15.87708835818842 0 0 0
106 0 5 0.764 17.48792864143332 10.690404196812795 13.482078109635895 0 0 0
84 0 7 -0.106 14.033030609859258 10.649236448390415 15.158672430940412 0 0 0
276 0 9 0.152 13.05195156419681 10.39932413900041 14.865030577063512 0 0 0
198 0 9 0.152 14.724358443693577 10.595815103009416 13.17548720452648 0 0 0
388 0 4 -0.6825 12.287188651859235 10.360477213708862 17.06112288872631 0 0 0
16 0 7 -0.106 15.69395311419981 11.072591168207058 16.85457858955894 0 0 0
160 0 6 -0.135 14.3806293044911 10.809875969480144 16.54073415132507 0 0 0
6 0 7 -0.106 15.006033265327694 10.689147571223703 14.196701629968093 0 0 0
150 0 6 -0.135 16.37847506236496 10.858498723278563 14.514287726825664 0 0 0
310 0 4 -0.6825 16.956638725996697 10.556185522424375 12.320628622205787 0 0 0
191 0 6 -0.135 10.382758210294137 16.23054697808523 14.215872034130276 0 0 0
282 0 9 0.152 17.73127102548156 11.165051817003489 16.166531670951777 0 0 0
394 0 4 -0.6825 18.719377325082878 10.691133805770065 13.797030757169567 0 0 0
59 0 7 -0.106 10.324064300630079 14.874666901958676 13.936628673652194 0 0 0
156 0 6 -0.135 5.95275709983072 9.82372986915506 16.489745518758795 0 0 0
400 0 4 -0.6825 8.224093089493064 9.873966684591263 17.068475299647325 0 0 0
306 0 4 -0.6825 3.4072188522576314 9.88913473767568 12.330820895125237 0 0 0
1966 0 5 0.764 20.564665918890032 13.273720652201236 13.747549827299345 0 0 0
3 0 7 -0.106 16.006465295120485 -0.18296976234877096 13.93417399738036 0 0 0
110 0 5 0.764 3.004898151958691 9.94181205631288 13.512789938726007 0 0 0
390 0 4 -0.6825 1.7745571995996126 10.026322050681875 13.849477340013136 0 0 0
278 0 9 0.152 2.644809794525925 10.448030156571798 15.997710397092938 0 0 0
12 0 7 -0.106 4.60857263198221 10.187250708078789 16.75187114889134 0 0 0
86 0 7 -0.106 3.6368961635845274 10.164213103096987 15.805131937674894 0 0 0
298 0 8 0.497 8.263966337815841 18.695227107162584 12.232369807376429 0 0 0
295 0 8 0.497 1.904060907665496 11.991238900254272 12.323493962773886 0 0 0
1309 0 4 -0.6825 18.688096504154657 20.46534806045367 17.227152822475546 0 0 0
344 0 4 -0.6825 10.279620018255264 12.163155902072209 17.060130255331444 0 0 0
52 0 7 -0.106 10.391283762796961 15.616578150263488 16.606582728496054 0 0 0
184 0 6 -0.135 10.319485929430417 14.3315436734775 16.306634578547936 0 0 0
140 0 5 0.764 10.227016507706425 13.34276965900873 17.400913844930802 0 0 0
251 0 9 0.152 10.274082403491011 14.65516284708752 12.85416357144032 0 0 0
363 0 4 -0.6825 10.155374538663128 16.935861743840242 12.023613045538946 0 0 0
47 0 7 -0.106 10.425503815055173 16.586112761057304 15.605398130390414 0 0 0
1363 0 1 2.37 10.206675315911072 20.63680596132766 12.77856559831104 0 0 0
1059 0 6 -0.135 14.432406685776746 20.572020708616176 14.653119880466269 0 0 0
999 0 7 -0.106 14.074086040016685 20.439574860989165 16.042439709513328 0 0 0
233 0 9 0.152 20.574680752134803 17.710408229211897 15.097024853050584 0 0 0
1303 0 4 -0.6825 12.129934708731787 20.634276224808197 13.976440866264662 0 0 0
1223 0 4 -0.6825 6.562961168707611 20.614632116186 12.227973317534447 0 0 0
279 0 9 0.152 13.04131866082377 20.234921151381887 16.23392504107917 0 0 0
2190 0 4 -0.6825 20.625628303260005 13.705591168103613 12.561787463249274 0 0 0
1195 0 9 0.152 7.282146069499121 20.148309491312318 16.063183607629327 0 0 0
415 0 3 -1.037 11.640868711697602 1.1107615721511497 11.901607396014057 0 0 0
1023 0 5 0.764 13.356396982932019 20.639799312155343 13.62419284637667 0 0 0
2162 0 4 -0.6825 20.522372053609978 12.044666679189502 14.004626502536814 0 0 0
1013 0 5 0.764 17.53109611604795 20.63887720053854 17.591686230901946 0 0 0
232 0 9 0.152 10.375878101332138 12.809384711600167 14.737664657491766 0 0 0
1065 0 6 -0.135 16.383815026241344 20.663169804364983 16.632395709117933 0 0 0