LAMMPS (7 Feb 2024 - Update 1)
OMP_NUM_THREADS environment is not set. Defaulting to 1 thread. (src/comm.cpp:98)
  using 1 OpenMP thread(s) per MPI task
Reading data file ...
  orthogonal box = (0 0 0) to (40.044 39.798 26.766)
  7 by 2 by 2 MPI processor grid
  reading atoms ...
  2304 atoms
Finding 1-2 1-3 1-4 neighbors ...
  special bond factors lj:    0        0        0       
  special bond factors coul:  0        0        0       
     0 = max # of 1-2 neighbors
     0 = max # of 1-3 neighbors
     0 = max # of 1-4 neighbors
     2 = max # of special neighbors
  special bonds CPU = 0.001 seconds
  read_data CPU = 0.012 seconds
Read molecule template methane:
# Methane molecule. TraPPE (UA) geometry.
  1 molecules
  0 fragments
  1 atoms with max type 3
  0 bonds with max type 0
  0 angles with max type 0
  0 dihedrals with max type 0
  0 impropers with max type 0
Created 80 atoms
  using lattice units in orthogonal box = (0 0 0) to (40.044 39.798 26.766)
  create_atoms CPU = 0.002 seconds
80 atoms in group methane
2304 atoms in group fwork
Generated 3 of 3 mixed pair_coeff terms from arithmetic mixing rule
Neighbor list info ...
  update: every = 1 steps, delay = 0 steps, check = yes
  max neighbors/atom: 2000, page size: 100000
  master list distance cutoff = 14
  ghost atom cutoff = 14
  binsize = 7, bins = 6 6 4
  1 neighbor lists, perpetual/occasional/extra = 1 0 0
  (1) pair lj/cut, perpetual
      attributes: half, newton on
      pair build: half/bin/newton
      stencil: half/bin/3d
      bin: standard
Setting up Verlet run ...
  Unit style    : real
  Current step  : 0
  Time step     : 1
Per MPI rank memory allocation (min/avg/max) = 6.347 | 6.354 | 6.361 Mbytes
   Step        c_wtemp         KinEng         PotEng         Press          Volume         E_pair        Density    
         0   300            70.645198      787468.14      5184235.4      42656.201      787468.14      1.8462953    
      1000   238.11487      56.07224       765903.99      5041120.9      42656.201      765903.99      1.8462953    
      2000   273.36461      64.37299       765909.26      5041174.3      42656.201      765909.26      1.8462953    
      3000   283.17376      66.682888      765914.37      5041197.4      42656.201      765914.37      1.8462953    
      4000   298.30637      70.246375      765910.84      5041230.4      42656.201      765910.84      1.8462953    
      5000   336.00853      79.124631      765919.88      5041322.2      42656.201      765919.88      1.8462953    
      6000   309.56727      72.898138      765914.77      5041228.5      42656.201      765914.77      1.8462953    
      7000   271.91446      64.031504      765912.53      5041207.7      42656.201      765912.53      1.8462953    
      8000   282.80856      66.596888      765910.67      5041207.1      42656.201      765910.67      1.8462953    
      9000   255.09265      60.070236      765908.83      5041164        42656.201      765908.83      1.8462953    
     10000   255.7074       60.214999      765921.24      5041279.8      42656.201      765921.24      1.8462953    
     11000   331.98175      78.176389      765907.28      5041209        42656.201      765907.28      1.8462953    
     12000   303.51501      71.472926      765926.4       5041356.7      42656.201      765926.4       1.8462953    
     13000   291.91119      68.740413      765919.79      5041248.6      42656.201      765919.79      1.8462953    
     14000   335.26941      78.95058       765909.12      5041222.5      42656.201      765909.12      1.8462953    
     15000   282.5353       66.532541      765922.97      5041293.8      42656.201      765922.97      1.8462953    
     16000   299.58049      70.546409      765914.57      5041219.9      42656.201      765914.57      1.8462953    
     17000   310.35757      73.08424       765915.41      5041238.9      42656.201      765915.41      1.8462953    
     18000   290.70547      68.456485      765916.67      5041233.2      42656.201      765916.67      1.8462953    
     19000   267.35477      62.957768      765915.16      5041225.5      42656.201      765915.16      1.8462953    
     20000   301.50381      70.999322      765911.35      5041192.2      42656.201      765911.35      1.8462953    
     21000   307.16319      72.332016      765928.52      5041356.1      42656.201      765928.52      1.8462953    
     22000   338.82747      79.788446      765909.73      5041233.2      42656.201      765909.73      1.8462953    
     23000   277.51841      65.351143      765908.28      5041158        42656.201      765908.28      1.8462953    
     24000   263.29069      62.000743      765919.74      5041245.7      42656.201      765919.74      1.8462953    
     25000   300.82632      70.839784      765913.71      5041240.1      42656.201      765913.71      1.8462953    
     26000   337.37685      79.446848      765911.1       5041220.4      42656.201      765911.1       1.8462953    
     27000   328.5873       77.37705       765924.06      5041277.6      42656.201      765924.06      1.8462953    
     28000   314.79585      74.129384      765916.47      5041258.5      42656.201      765916.47      1.8462953    
     29000   277.08899      65.250023      765910.58      5041209.2      42656.201      765910.58      1.8462953    
     30000   291.58703      68.664078      765913.21      5041221.3      42656.201      765913.21      1.8462953    
     31000   282.99844      66.641603      765917.92      5041255.7      42656.201      765917.92      1.8462953    
     32000   288.54226      67.947085      765911.4       5041184.6      42656.201      765911.4       1.8462953    
     33000   246.47124      58.040032      765913.92      5041226.2      42656.201      765913.92      1.8462953    
     34000   285.86024      67.315512      765924.63      5041307.1      42656.201      765924.63      1.8462953    
     35000   273.60129      64.428725      765909.78      5041163.5      42656.201      765909.78      1.8462953    
     36000   283.2586       66.702867      765919.45      5041231.7      42656.201      765919.45      1.8462953    
     37000   293.78012      69.180515      765915.12      5041255.9      42656.201      765915.12      1.8462953    
     38000   288.83649      68.016369      765920.69      5041262.7      42656.201      765920.69      1.8462953    
     39000   223.03087      52.5202        765926.53      5041279        42656.201      765926.53      1.8462953    
     40000   277.60024      65.370414      765909.88      5041168.2      42656.201      765909.88      1.8462953    
     41000   317.10001      74.671978      765907.71      5041165.2      42656.201      765907.71      1.8462953    
     42000   308.24351      72.586413      765910.42      5041197.3      42656.201      765910.42      1.8462953    
     43000   313.55757      73.837789      765918.43      5041302.8      42656.201      765918.43      1.8462953    
     44000   303.85307      71.552535      765907.14      5041168.3      42656.201      765907.14      1.8462953    
     45000   282.46695      66.516445      765923.08      5041289        42656.201      765923.08      1.8462953    
     46000   270.25797      63.641425      765909.09      5041184.5      42656.201      765909.09      1.8462953    
     47000   332.4844       78.294755      765909.93      5041234.3      42656.201      765909.93      1.8462953    
     48000   300.46565      70.754851      765918.3       5041265.7      42656.201      765918.3       1.8462953    
     49000   296.05365      69.715896      765922.27      5041266.7      42656.201      765922.27      1.8462953    
     50000   259.70892      61.157293      765920.05      5041252.5      42656.201      765920.05      1.8462953    
Loop time of 28.1067 on 28 procs for 50000 steps with 2384 atoms

Performance: 153.700 ns/day, 0.156 hours/ns, 1778.933 timesteps/s, 4.241 Matom-step/s
91.4% CPU use with 28 MPI tasks x 1 OpenMP threads

MPI task timing breakdown:
Section |  min time  |  avg time  |  max time  |%varavg| %total
---------------------------------------------------------------
Pair    | 9.4096     | 12.995     | 17.064     |  62.1 | 46.23
Bond    | 0.00099452 | 0.0011949  | 0.0013835  |   0.3 |  0.00
Neigh   | 0.2966     | 0.34094    | 0.40198    |   5.9 |  1.21
Comm    | 8.6039     | 12.915     | 16.683     |  62.7 | 45.95
Output  | 0.0014277  | 0.0014426  | 0.0016258  |   0.1 |  0.01
Modify  | 0.16324    | 0.31443    | 0.51735    |  24.9 |  1.12
Other   |            | 1.539      |            |       |  5.47

Nlocal:        85.1429 ave         103 max          73 min
Histogram: 3 4 7 6 0 0 0 0 4 4
Nghost:        3750.61 ave        3864 max        3648 min
Histogram: 8 0 0 0 5 3 8 0 0 4
Neighs:        27508.3 ave       34093 max       20703 min
Histogram: 2 4 4 3 0 3 2 3 3 4

Total # of neighbors = 770233
Ave neighs/atom = 323.08431
Ave special neighs/atom = 0
Neighbor list builds = 607
Dangerous builds = 0
Generated 3 of 3 mixed pair_coeff terms from arithmetic mixing rule
Setting up Verlet run ...
  Unit style    : real
  Current step  : 0
  Time step     : 1
Per MPI rank memory allocation (min/avg/max) = 6.738 | 6.745 | 6.752 Mbytes
   Step          Temp      c_msd_methane[4]   v_twopoint     v_D_slope   
         0   8.6097374      1.2621774e-29  2.1036291e-24  1.6666667e+17
      1000   8.9321833      7.3349887      0.0012224981   0.0011860137 
      2000   9.4872816      9.8968184      0.00082473487  0.00092040162
      3000   10.123512      11.926366      0.00066257589  0.00062210605
      4000   9.2090863      14.725977      0.00061358236  0.00057628936
      5000   9.4063752      15.593666      0.00051978886  0.00048863693
      6000   9.8852549      20.655909      0.00057377526  0.00047747079
      7000   9.0090854      23.081635      0.00054956274  0.00049485122
      8000   8.9068615      20.912318      0.0004356733   0.00044738774
      9000   9.4832912      25.146269      0.00046567164  0.00040528041
     10000   8.9281878      27.652411      0.00046087351  0.00040039597
     11000   8.991281       31.638924      0.00047937763  0.00039891773
     12000   9.9060069      29.230666      0.00040598147  0.00038635133
     13000   9.6669437      29.560818      0.00037898485  0.00036207646
     14000   8.2433125      32.129015      0.00038248827  0.00034296397
     15000   10.635877      31.169844      0.0003463316   0.00032896242
     16000   8.9862693      30.559955      0.00031833287  0.00030889854
     17000   9.0234327      36.434271      0.00035719874  0.0002988389 
     18000   10.454139      36.600242      0.00033889113  0.00029504081
     19000   10.277285      42.27727       0.00037085324  0.00029412277
     20000   8.6580214      44.250475      0.00036875396  0.00030015174
     21000   9.1759249      46.711026      0.00037072243  0.00030511135
     22000   9.9606664      46.570236      0.00035280482  0.00030428447
     23000   9.0829635      48.342089      0.00035030499  0.00030465624
     24000   8.4164849      50.643662      0.0003516921   0.00030276215
     25000   9.7902576      48.69264       0.0003246176   0.00030003096
     26000   9.6543651      46.929715      0.00030083151  0.00029147257
     27000   9.4272684      49.328512      0.00030449699  0.0002852082 
     28000   9.3068697      53.764727      0.00032002814  0.00028080576
     29000   9.7153991      58.463887      0.00033599935  0.0002816164 
     30000   9.0123199      61.187997      0.00033993331  0.0002865937 
     31000   10.252313      68.530549      0.00036844381  0.00029190207
     32000   9.2923961      64.113571      0.00033392485  0.00029366479
     33000   9.3866462      67.842321      0.00034263799  0.00029528822
     34000   9.7756024      76.277633      0.00037390996  0.00029956511
     35000   8.6358884      73.697372      0.00035093987  0.00030467012
     36000   9.581195       69.914914      0.00032368016  0.0003050499 
     37000   9.6397235      75.845936      0.00034164836  0.00030401981
     38000   9.775945       82.161134      0.00036035585  0.00030624341
     39000   8.7493241      86.547736      0.00036986212  0.00031128692
     40000   10.668192      88.390963      0.00036829568  0.00031656201
     41000   9.4610808      87.247082      0.00035466293  0.00031913635
     42000   9.061565       85.91361       0.00034092702  0.00032060764
     43000   9.5195877      90.131687      0.00034934762  0.00032107287
     44000   10.109468      98.555204      0.00037331517  0.00032370703
     45000   9.882532       101.50842      0.00037595711  0.00032737489
     46000   9.4439237      101.40642      0.00036741458  0.00033062123
     47000   9.7580044      107.35216      0.00038068143  0.00033421635
     48000   9.8697406      108.68565      0.00037738073  0.0003384622 
     49000   9.595352       116.23961      0.00039537283  0.00034308642
     50000   10.29264       118.77375      0.00039591251  0.00034749128
     51000   8.9554142      117.96205      0.0003854969   0.00035100106
     52000   8.5101502      128.39715      0.00041152932  0.00035636874
     53000   8.9826114      130.71856      0.00041106465  0.00036165013
     54000   10.669115      131.75652      0.00040665593  0.00036647725
     55000   9.7521395      133.89001      0.00040572731  0.00036984222
     56000   10.388241      137.00348      0.00040774846  0.00037349356
     57000   10.262189      144.23126      0.00042172882  0.0003777337 
     58000   8.8336305      141.9404       0.00040787471  0.00038119457
     59000   9.6509851      141.60765      0.00040002161  0.0003837583 
     60000   9.6705685      142.67905      0.00039633069  0.00038556135
     61000   9.6726216      144.88069      0.00039584887  0.00038680566
     62000   9.2521095      156.95441      0.00042192045  0.00038963827
     63000   9.4358904      162.46628      0.00042980498  0.00039364726
     64000   8.9711759      170.61         0.00044429688  0.000398255  
     65000   9.7409172      176.26683      0.00045196623  0.00040340765
     66000   10.371393      182.1774       0.00046004394  0.00040859557
     67000   9.5031169      183.91332      0.00045749583  0.00041397694
     68000   9.6754442      196.83439      0.00048243723  0.00042007289
     69000   9.6125992      199.35105      0.00048152427  0.00042603938
     70000   8.3937174      202.7388       0.00048271143  0.00043223537
     71000   8.9786207      202.97634      0.00047647027  0.00043759887
     72000   9.984112       211.68416      0.00049000963  0.00044311137
     73000   9.8721592      219.78859      0.00050180043  0.00044841793
     74000   9.9380254      228.68779      0.00051506259  0.00045521868
     75000   9.8686656      231.57529      0.00051461175  0.00046174985
     76000   9.2312061      233.62968      0.0005123458   0.00046805425
     77000   8.9944876      235.18169      0.00050905128  0.00047345506
     78000   10.166806      231.95373      0.00049562763  0.00047784982
     79000   10.154254      228.31789      0.00048168331  0.00048063015
     80000   9.5896954      229.95474      0.00047907237  0.00048312914
     81000   9.8929391      225.09866      0.00046316597  0.0004847677 
     82000   10.022553      228.75863      0.00046495656  0.00048555249
     83000   8.6803624      223.81234      0.00044942236  0.00048607735
     84000   10.195326      213.59999      0.00042380951  0.00048477719
     85000   9.0160324      213.45853      0.00041854614  0.00048240052
     86000   8.3842102      213.99274      0.00041471461  0.00047953666
     87000   8.761565       215.33645      0.00041252194  0.00047707   
     88000   9.9994037      220.67286      0.00041794101  0.0004747434 
     89000   9.5837729      226.15915      0.00042351902  0.0004728981 
     90000   8.884382       226.38635      0.00041923399  0.00047101791
     91000   9.5151873      229.57402      0.00042046525  0.00046952531
     92000   9.0500808      237.65781      0.00043053952  0.00046805741
     93000   10.466827      237.55117      0.00042571894  0.00046706783
     94000   9.6153164      236.13008      0.00041867036  0.00046535168
     95000   9.3714891      233.8272       0.00041022315  0.00046326822
     96000   9.3177022      226.97452      0.00039405298  0.00046092731
     97000   9.0157905      240.30874      0.00041290162  0.00045860682
     98000   9.5320772      240.15264      0.00040842286  0.00045639343
     99000   8.8188107      243.05117      0.00040917705  0.00045447796
    100000   9.67419        245.91045      0.00040985076  0.00045300799
Loop time of 57.4037 on 28 procs for 100000 steps with 2384 atoms

Performance: 150.513 ns/day, 0.159 hours/ns, 1742.049 timesteps/s, 4.153 Matom-step/s
91.7% CPU use with 28 MPI tasks x 1 OpenMP threads

MPI task timing breakdown:
Section |  min time  |  avg time  |  max time  |%varavg| %total
---------------------------------------------------------------
Pair    | 18.865     | 26.354     | 34.964     |  89.5 | 45.91
Bond    | 0.0020488  | 0.0024288  | 0.0031123  |   0.5 |  0.00
Neigh   | 0.57816    | 0.66206    | 0.78603    |   8.2 |  1.15
Comm    | 18.083     | 26.752     | 34.808     |  88.1 | 46.60
Output  | 0.013881   | 0.091612   | 0.099009   |   5.0 |  0.16
Modify  | 0.036379   | 0.042606   | 0.049575   |   1.5 |  0.07
Other   |            | 3.499      |            |       |  6.09

Nlocal:        85.1429 ave         102 max          74 min
Histogram: 7 1 7 5 0 0 0 0 3 5
Nghost:        3745.46 ave        3850 max        3637 min
Histogram: 8 0 0 0 1 7 4 4 0 4
Neighs:        27506.5 ave       34809 max       20904 min
Histogram: 5 1 5 2 1 2 4 3 3 2

Total # of neighbors = 770183
Ave neighs/atom = 323.06334
Ave special neighs/atom = 0
Neighbor list builds = 1161
Dangerous builds = 0
WARNING: Detected non-ASCII characters in input. Will try to continue by replacing with ASCII equivalents where known. (src/input.cpp:478)
Diffusion coefficient (from slope) = 0.000453007991363735 […^2/fs]
Total wall time: 0:01:25
